 vasp.5.4.4.18Apr17-6-g9f103f2a35 (build Sep 16 2019 21:59:08) complex          
  
 executed on             LinuxIFC date 2021.10.31  22:42:00
 running on   72 total cores
 distrk:  each k-point on   36 cores,    2 groups
 distr:  one band on NCORES_PER_BAND=   1 cores,   36 groups


--------------------------------------------------------------------------------------------------------


 INCAR:
 POTCAR:    PAW_PBE Fe 06Sep2000                  
 POTCAR:    PAW_PBE I 08Apr2002                   

 ----------------------------------------------------------------------------- 
|                                                                             |
|           W    W    AA    RRRRR   N    N  II  N    N   GGGG   !!!           |
|           W    W   A  A   R    R  NN   N  II  NN   N  G    G  !!!           |
|           W    W  A    A  R    R  N N  N  II  N N  N  G       !!!           |
|           W WW W  AAAAAA  RRRRR   N  N N  II  N  N N  G  GGG   !            |
|           WW  WW  A    A  R   R   N   NN  II  N   NN  G    G                |
|           W    W  A    A  R    R  N    N  II  N    N   GGGG   !!!           |
|                                                                             |
|      For optimal performance we recommend to set                            |
|        NCORE= 4 - approx SQRT( number of cores)                             |
|      NCORE specifies how many cores store one orbital (NPAR=cpu/NCORE).     |
|      This setting can  greatly improve the performance of VASP for DFT.     |
|      The default,   NCORE=1            might be grossly inefficient         |
|      on modern multi-core architectures or massively parallel machines.     |
|      Do your own testing !!!!                                               |
|      Unfortunately you need to use the default for GW and RPA calculations. |
|      (for HF NCORE is supported but not extensively tested yet)             |
|                                                                             |
 ----------------------------------------------------------------------------- 


 ----------------------------------------------------------------------------- 
|                                                                             |
|           W    W    AA    RRRRR   N    N  II  N    N   GGGG   !!!           |
|           W    W   A  A   R    R  NN   N  II  NN   N  G    G  !!!           |
|           W    W  A    A  R    R  N N  N  II  N N  N  G       !!!           |
|           W WW W  AAAAAA  RRRRR   N  N N  II  N  N N  G  GGG   !            |
|           WW  WW  A    A  R   R   N   NN  II  N   NN  G    G                |
|           W    W  A    A  R    R  N    N  II  N    N   GGGG   !!!           |
|                                                                             |
|      You have enabled k-point parallelism (KPAR>1).                         |
|      This developmental code was originally  written by Paul Kent at ORNL,  |
|      and carefully double checked in Vienna.                                |
|      GW as well as linear response parallelism added by Martijn Marsman     |
|      and Georg Kresse.                                                      |
|      Carefully verify results versus KPAR=1.                                |
|      Report problems to Paul Kent and Vienna.                               |
|                                                                             |
 ----------------------------------------------------------------------------- 

 POTCAR:    PAW_PBE Fe 06Sep2000                  
   VRHFIN =Fe:  d7 s1                                                           
   LEXCH  = PE                                                                  
   EATOM  =   594.3153 eV,   43.6809 Ry                                         
                                                                                
   TITEL  = PAW_PBE Fe 06Sep2000                                                
   LULTRA =        F    use ultrasoft PP ?                                      
   IUNSCR =        1    unscreen: 0-lin 1-nonlin 2-no                           
   RPACOR =    2.000    partial core radius                                     
   POMASS =   55.847; ZVAL   =    8.000    mass and valenz                      
   RCORE  =    2.300    outmost cutoff radius                                   
   RWIGS  =    2.460; RWIGS  =    1.302    wigner-seitz radius (au A)           
   ENMAX  =  267.882; ENMIN  =  200.911 eV                                      
   RCLOC  =    1.701    cutoff for local pot                                    
   LCOR   =        T    correct aug charges                                     
   LPAW   =        T    paw PP                                                  
   EAUG   =  511.368                                                            
   DEXC   =    0.000                                                            
   RMAX   =    2.356    core radius for proj-oper                               
   RAUG   =    1.300    factor for augmentation sphere                          
   RDEP   =    2.442    radius for radial grids                                 
   RDEPT  =    1.890    core radius for aug-charge                              
                                                                                
   Atomic configuration                                                         
    9 entries                                                                   
     n  l   j            E        occ.                                          
     1  0  0.50     -6993.8440   2.0000                                         
     2  0  0.50      -814.6047   2.0000                                         
     2  1  1.50      -693.3689   6.0000                                         
     3  0  0.50       -89.4732   2.0000                                         
     3  1  1.50       -55.6373   6.0000                                         
     3  2  2.50        -3.8151   7.0000                                         
     4  0  0.50        -4.2551   1.0000                                         
     4  1  1.50        -3.4015   0.0000                                         
     4  3  2.50        -1.3606   0.0000                                         
   Description                                                                  
     l       E           TYP  RCUT    TYP  RCUT                                 
     2     -3.8151135     23  2.300                                             
     2     -5.1756961     23  2.300                                             
     0     -4.2550963     23  2.300                                             
     0      7.2035603     23  2.300                                             
     1     -2.7211652     23  2.300                                             
     1     18.4316424     23  2.300                                             
  local pseudopotential read in
  partial core-charges read in
  partial kinetic energy density read in
  atomic valenz-charges read in
  non local Contribution for L=           2  read in
    real space projection operators read in
  non local Contribution for L=           2  read in
    real space projection operators read in
  non local Contribution for L=           0  read in
    real space projection operators read in
  non local Contribution for L=           0  read in
    real space projection operators read in
  non local Contribution for L=           1  read in
    real space projection operators read in
  non local Contribution for L=           1  read in
    real space projection operators read in
    PAW grid and wavefunctions read in
 
   number of l-projection  operators is LMAX  =           6
   number of lm-projection operators is LMMAX =          18
 
 POTCAR:    PAW_PBE I 08Apr2002                   
   VRHFIN =I : s2p5                                                             
   LEXCH  = PE                                                                  
   EATOM  =   315.8678 eV,   23.2156 Ry                                         
                                                                                
   TITEL  = PAW_PBE I 08Apr2002                                                 
   LULTRA =        F    use ultrasoft PP ?                                      
   IUNSCR =        1    unscreen: 0-lin 1-nonlin 2-no                           
   RPACOR =    2.200    partial core radius                                     
   POMASS =  126.904; ZVAL   =    7.000    mass and valenz                      
   RCORE  =    2.300    outmost cutoff radius                                   
   RWIGS  =    2.810; RWIGS  =    1.487    wigner-seitz radius (au A)           
   ENMAX  =  175.647; ENMIN  =  131.735 eV                                      
   ICORE  =        3    local potential                                         
   LCOR   =        T    correct aug charges                                     
   LPAW   =        T    paw PP                                                  
   EAUG   =  370.139                                                            
   DEXC   =    0.000                                                            
   RMAX   =    2.359    core radius for proj-oper                               
   RAUG   =    1.300    factor for augmentation sphere                          
   RDEP   =    2.392    radius for radial grids                                 
   RDEPT  =    2.170    core radius for aug-charge                              
                                                                                
   Atomic configuration                                                         
   13 entries                                                                   
     n  l   j            E        occ.                                          
     1  0  0.50    -32976.3739   2.0000                                         
     2  0  0.50     -5094.5933   2.0000                                         
     2  1  1.50     -4572.0131   6.0000                                         
     3  0  0.50     -1028.2813   2.0000                                         
     3  1  1.50      -859.0250   6.0000                                         
     3  2  2.50      -605.7620  10.0000                                         
     4  0  0.50      -180.5540   2.0000                                         
     4  1  1.50      -127.5306   6.0000                                         
     4  2  2.50       -50.2720  10.0000                                         
     5  0  0.50       -17.4058   2.0000                                         
     5  1  0.50        -7.0851   5.0000                                         
     5  2  1.50        -7.0750   0.0000                                         
     4  3  2.50        -7.0750   0.0000                                         
   Description                                                                  
     l       E           TYP  RCUT    TYP  RCUT                                 
     0    -17.4058016     23  2.300                                             
     0    -18.7663842     23  2.300                                             
     1     -7.0850686     23  2.300                                             
     1     -4.2150896     23  2.300                                             
     2     -7.0750295     23  2.300                                             
     3     -1.3605826     23  2.300                                             
  local pseudopotential read in
  partial core-charges read in
  partial kinetic energy density read in
  atomic valenz-charges read in
  non local Contribution for L=           0  read in
    real space projection operators read in
  non local Contribution for L=           0  read in
    real space projection operators read in
  non local Contribution for L=           1  read in
    real space projection operators read in
  non local Contribution for L=           1  read in
    real space projection operators read in
  non local Contribution for L=           2  read in
    real space projection operators read in
    PAW grid and wavefunctions read in
 
   number of l-projection  operators is LMAX  =           5
   number of lm-projection operators is LMMAX =          13
 
  PAW_PBE Fe 06Sep2000                  :
 energy of atom  1       EATOM= -594.3153
 kinetic energy error for atom=    0.0239 (will be added to EATOM!!)
  PAW_PBE I 08Apr2002                   :
 energy of atom  2       EATOM= -315.8678
 kinetic energy error for atom=    0.0027 (will be added to EATOM!!)
 
 
 POSCAR:  Fe  I                                  
  positions in cartesian coordinates
  No initial velocities read in
 exchange correlation table for  LEXCH =        8
   RHO(1)=    0.500       N(1)  =     2000
   RHO(2)=  100.500       N(2)  =     4000
 


--------------------------------------------------------------------------------------------------------


 ion  position               nearest neighbor table
   1  0.667  0.333  0.500-   7 2.81   6 2.81   8 2.81   3 2.81   5 2.81   4 2.81
   2  0.333  0.667  0.500-   5 2.81   3 2.81   4 2.81   6 2.81   8 2.81   7 2.81
   3  0.428  0.000  0.417-   2 2.81   1 2.81
   4  0.572  0.572  0.417-   2 2.81   1 2.81
   5  1.000  0.428  0.417-   2 2.81   1 2.81
   6  0.428  0.000  0.583-   1 2.81   2 2.81
   7  0.572  0.572  0.583-   1 2.81   2 2.81
   8  1.000  0.428  0.583-   1 2.81   2 2.81
 
  LATTYP: Found a hexagonal cell.
 ALAT       =     7.2841981229
 C/A-ratio  =     2.9610806465
  
  Lattice vectors:
  
 A1 = (   7.2841981229,   0.0000000000,   0.0000000000)
 A2 = (  -3.6420990614,   6.3083006206,   0.0000000000)
 A3 = (   0.0000000000,   0.0000000000,  21.5690980866)


Analysis of symmetry for initial positions (statically):
=====================================================================
 Subroutine PRICEL returns:
 Original cell was already a primitive cell.
 

 Routine SETGRP: Setting up the symmetry group for a 
 hexagonal supercell.


 Subroutine GETGRP returns: Found  3 space group operations
 (whereof  3 operations were pure point group operations)
 out of a pool of 24 trial point group operations.


The static configuration has the point symmetry C_3 .


Analysis of symmetry for dynamics (positions and initial velocities):
=====================================================================
 Subroutine PRICEL returns:
 Original cell was already a primitive cell.
 

 Routine SETGRP: Setting up the symmetry group for a 
 hexagonal supercell.


 Subroutine GETGRP returns: Found  3 space group operations
 (whereof  3 operations were pure point group operations)
 out of a pool of 24 trial point group operations.


The dynamic configuration has the point symmetry C_3 .


Analysis of structural, dynamic, and magnetic symmetry:
=====================================================================
 Subroutine PRICEL returns:
 Original cell was already a primitive cell.
 

 Routine SETGRP: Setting up the symmetry group for a 
 hexagonal supercell.


 Subroutine GETGRP returns: Found  3 space group operations
 (whereof  3 operations were pure point group operations)
 out of a pool of 24 trial point group operations.


The magnetic configuration has the point symmetry C_3 .


 Subroutine INISYM returns: Found  3 space group operations
 (whereof  3 operations are pure point group operations),
 and found     1 'primitive' translations

 
 
 KPOINTS: KPT-Resolved Value to Generate K-Mesh: 0

Automatic generation of k-mesh.
Space group operators:
 irot       det(A)        alpha          n_x          n_y          n_z        tau_x        tau_y        tau_z
    1     1.000000     0.000000     1.000000     0.000000     0.000000     0.000000     0.000000     0.000000
    2     1.000000   120.000000     0.000000     0.000000    -1.000000     0.000000     0.000000     0.000000
    3     1.000000   120.000000     0.000000     0.000000     1.000000     0.000000     0.000000     0.000000
 
 Subroutine IBZKPT returns following result:
 ===========================================
 
 Found      2 irreducible k-points:
 
 Following reciprocal coordinates:
            Coordinates               Weight
  0.000000  0.000000  0.000000      1.000000
  0.500000  0.000000  0.000000      3.000000
 
 Following cartesian coordinates:
            Coordinates               Weight
  0.000000  0.000000  0.000000      1.000000
  0.068642  0.039630  0.000000      3.000000
 


--------------------------------------------------------------------------------------------------------




 Dimension of arrays:
   k-points           NKPTS =      2   k-points in BZ     NKDIM =      2   number of bands    NBANDS=     36
   number of dos      NEDOS =    301   number of ions     NIONS =      8
   non local maximal  LDIM  =      6   non local SUM 2l+1 LMDIM =     18
   total plane-waves  NPLWV = 322560
   max r-space proj   IRMAX =      1   max aug-charges    IRDMAX=  65545
   dimension x,y,z NGX =    48 NGY =   48 NGZ =  140
   dimension x,y,z NGXF=    72 NGYF=   72 NGZF=  216
   support grid    NGXF=   144 NGYF=  144 NGZF=  432
   ions per type =               2   6
   NGX,Y,Z   is equivalent  to a cutoff of  10.95, 10.95, 10.79 a.u.
   NGXF,Y,Z  is equivalent  to a cutoff of  16.43, 16.43, 16.65 a.u.

 SYSTEM =  Si                                      
 POSCAR =   Fe  I                                  

 Startparameter for this run:
   NWRITE =      2    write-flag & timer
   PREC   = h         normal or accurate (medium, high low for compatibility)
   ISTART =      0    job   : 0-new  1-cont  2-samecut
   ICHARG =      2    charge: 1-file 2-atom 10-const
   ISPIN  =      2    spin polarized calculation?
   LNONCOLLINEAR =      F non collinear calculations
   LSORBIT =      F    spin-orbit coupling
   INIWAV =      1    electr: 0-lowe 1-rand  2-diag
   LASPH  =      F    aspherical Exc in radial PAW
   METAGGA=      F    non-selfconsistent MetaGGA calc.

 Electronic Relaxation 1
   ENCUT  =  334.9 eV  24.61 Ry    4.96 a.u.  10.87 10.87 32.18*2*pi/ulx,y,z
   ENINI  =  334.9     initial cutoff
   ENAUG  =  511.4 eV  augmentation charge cutoff
   NELM   =    200;   NELMIN=  2; NELMDL= -5     # of ELM steps 
   EDIFF  = 0.1E-07   stopping-criterion for ELM
   LREAL  =      F    real-space projection
   NLSPLINE    = F    spline interpolate recip. space projectors
   LCOMPAT=      F    compatible to vasp.4.4
   GGA_COMPAT  = T    GGA compatible to vasp.4.4-vasp.4.6
   LMAXPAW     = -100 max onsite density
   LMAXMIX     =    2 max onsite mixed and CHGCAR
   VOSKOWN=      0    Vosko Wilk Nusair interpolation
   ROPT   =    0.00000   0.00000
 Ionic relaxation
   EDIFFG = 0.1E-06   stopping-criterion for IOM
   NSW    =      0    number of steps for IOM
   NBLOCK =      1;   KBLOCK =      1    inner block; outer block 
   IBRION =     -1    ionic relax: 0-MD 1-quasi-New 2-CG
   NFREE  =      0    steps in history (QN), initial steepest desc. (CG)
   ISIF   =      2    stress and relaxation
   IWAVPR =     10    prediction:  0-non 1-charg 2-wave 3-comb
   ISYM   =      2    0-nonsym 1-usesym 2-fastsym
   LCORR  =      T    Harris-Foulkes like correction to forces

   POTIM  = 0.5000    time-step for ionic-motion
   TEIN   =    0.0    initial temperature
   TEBEG  =    0.0;   TEEND  =   0.0 temperature during run
   SMASS  =  -3.00    Nose mass-parameter (am)
   estimated Nose-frequenzy (Omega)   =  0.10E-29 period in steps =****** mass=  -0.121E-26a.u.
   SCALEE = 1.0000    scale energy and forces
   NPACO  =    256;   APACO  = 16.0  distance and # of slots for P.C.
   PSTRESS=    0.0 pullay stress

  Mass of Ions in am
   POMASS =  55.85126.90
  Ionic Valenz
   ZVAL   =   8.00  7.00
  Atomic Wigner-Seitz radii
   RWIGS  =  -1.00 -1.00
  virtual crystal weights 
   VCA    =   1.00  1.00
   NELECT =      58.0000    total number of electrons
   NUPDOWN=       0.0000    fix difference up-down

 DOS related values:
   EMIN   =  10.00;   EMAX   =-10.00  energy-range for DOS
   EFERMI =   0.00
   ISMEAR =     0;   SIGMA  =   0.02  broadening in eV -4-tet -1-fermi 0-gaus

 Electronic relaxation 2 (details)
   IALGO  =     58    algorithm
   LDIAG  =      T    sub-space diagonalisation (order eigenvalues)
   LSUBROT=      F    optimize rotation matrix (better conditioning)
   TURBO    =      0    0=normal 1=particle mesh
   IRESTART =      0    0=no restart 2=restart with 2 vectors
   NREBOOT  =      0    no. of reboots
   NMIN     =      0    reboot dimension
   EREF     =   0.00    reference energy to select bands
   IMIX   =      4    mixing-type and parameters
     AMIX     =   0.40;   BMIX     =  1.00
     AMIX_MAG =   1.60;   BMIX_MAG =  1.00
     AMIN     =   0.10
     WC   =   100.;   INIMIX=   1;  MIXPRE=   1;  MAXMIX= -45

 Intra band minimization:
   WEIMIN = 0.0000     energy-eigenvalue tresh-hold
   EBREAK =  0.69E-10  absolut break condition
   DEPER  =   0.30     relativ break condition  

   TIME   =   0.10     timestep for ELM

  volume/ion in A,a.u.               =     123.89       836.05
  Fermi-wavevector in a.u.,A,eV,Ry     =   0.635588  1.201087  5.496368  0.403972
  Thomas-Fermi vector in A             =   1.699971
 
 Write flags
   LWAVE        =      T    write WAVECAR
   LDOWNSAMPLE  =      F    k-point downsampling of WAVECAR
   LCHARG       =      T    write CHGCAR
   LVTOT        =      F    write LOCPOT, total local potential
   LVHAR        =      F    write LOCPOT, Hartree potential only
   LELF         =      F    write electronic localiz. function (ELF)
   LORBIT       =      0    0 simple, 1 ext, 2 COOP (PROOUT), +10 PAW based schemes


 Dipole corrections
   LMONO  =      F    monopole corrections only (constant potential shift)
   LDIPOL =      F    correct potential (dipole corrections)
   IDIPOL =      0    1-x, 2-y, 3-z, 4-all directions 
   EPSILON=  1.0000000 bulk dielectric constant

 Exchange correlation treatment:
   GGA     =    --    GGA type
   LEXCH   =     8    internal setting for exchange type
   VOSKOWN=      0    Vosko Wilk Nusair interpolation
   LHFCALC =     F    Hartree Fock is set to
   LHFONE  =     F    Hartree Fock one center treatment
   AEXX    =    0.0000 exact exchange contribution

 Linear response parameters
   LEPSILON=     F    determine dielectric tensor
   LRPA    =     F    only Hartree local field effects (RPA)
   LNABLA  =     F    use nabla operator in PAW spheres
   LVEL    =     F    velocity operator in full k-point grid
   LINTERFAST=   F  fast interpolation
   KINTER  =     0    interpolate to denser k-point grid
   CSHIFT  =0.1000    complex shift for real part using Kramers Kronig
   OMEGAMAX=  -1.0    maximum frequency
   DEG_THRESHOLD= 0.2000000E-02 threshold for treating states as degnerate
   RTIME   =   -0.100 relaxation time in fs
  (WPLASMAI=    0.000 imaginary part of plasma frequency in eV, 0.658/RTIME)
   DFIELD  = 0.0000000 0.0000000 0.0000000 field for delta impulse in time
 
 Orbital magnetization related:
   ORBITALMAG=     F  switch on orbital magnetization
   LCHIMAG   =     F  perturbation theory with respect to B field
   DQ        =  0.001000  dq finite difference perturbation B field
   LLRAUG    =     F  two centre corrections for induced B field



--------------------------------------------------------------------------------------------------------


 Static calculation
 charge density and potential will be updated during run
 spin polarized calculation
 Conjugate gradient for all bands (Freysoldt, et al. PRB 79, 241103 (2009))
 preconditioned conjugated gradient                                        
 perform sub-space diagonalisation
    before iterative eigenvector-optimisation
 modified Broyden-mixing scheme, WC =      100.0
 initial mixing is a Kerker type mixing with AMIX =  0.4000 and BMIX =      1.0000
 Hartree-type preconditioning will be used
 using additional bands            7
 reciprocal scheme for non local part
 use partial core corrections
 no Harris-corrections to forces 
 use gradient corrections 
 use of overlap-Matrix (Vanderbilt PP)
 Gauss-broadening in eV      SIGMA  =   0.02


--------------------------------------------------------------------------------------------------------


  energy-cutoff  :      334.85
  volume of cell :      991.12
      direct lattice vectors                 reciprocal lattice vectors
     7.284198123  0.000000000  0.000000000     0.137283471  0.079260649  0.000000000
    -3.642099061  6.308300621  0.000000000     0.000000000  0.158521298  0.000000000
     0.000000000  0.000000000 21.569098087     0.000000000  0.000000000  0.046362625

  length of vectors
     7.284198123  7.284198123 21.569098087     0.158521298  0.158521298  0.046362625


 
 k-points in units of 2pi/SCALE and weight: KPT-Resolved Value to Generate K-Mesh: 0
   0.00000000  0.00000000  0.00000000       0.250
   0.06864174  0.03963032  0.00000000       0.750
 
 k-points in reciprocal lattice and weights: KPT-Resolved Value to Generate K-Mesh: 0
   0.00000000  0.00000000  0.00000000       0.250
   0.50000000  0.00000000  0.00000000       0.750
 
 position of ions in fractional coordinates (direct lattice) 
   0.66666667  0.33333333  0.50002607
   0.33333333  0.66666667  0.49994294
   0.42789610  0.00005456  0.41726362
   0.57215846  0.57210390  0.41726362
   0.99994544  0.42784154  0.41726362
   0.42790301  0.00015168  0.58273638
   0.57224867  0.57209699  0.58273638
   0.99984832  0.42775133  0.58273638
 
 position of ions in cartesian coordinates  (Angst):
   3.64209906  2.10276687 10.78511139
   0.00000000  4.20553375 10.78331839
   3.11668126  0.00034417  9.00000000
   2.08405649  3.60900339  9.00000000
   5.72555944  2.69895306  9.00000000
   3.11637787  0.00095686 12.56909809
   2.08473879  3.60895979 12.56909809
   5.72518053  2.69838397 12.56909809
 


--------------------------------------------------------------------------------------------------------


 k-point  1 :   0.0000 0.0000 0.0000  plane waves:   13745
 k-point  2 :   0.5000 0.0000 0.0000  plane waves:   13812

 maximum and minimum number of plane-waves per node :     13812    13745

 maximum number of plane-waves:     13812
 maximum index in each direction: 
   IXMAX=   10   IYMAX=   10   IZMAX=   32
   IXMIN=  -11   IYMIN=  -10   IZMIN=  -32


 serial   3D FFT for wavefunctions
 parallel 3D FFT for charge:
    minimum data exchange during FFTs selected (reduces bandwidth)


 total amount of memory used by VASP MPI-rank0    76995. kBytes
=======================================================================

   base      :      30000. kBytes
   nonl-proj :       9732. kBytes
   fftplans  :       5951. kBytes
   grid      :      28385. kBytes
   one-center:        248. kBytes
   wavefun   :       2679. kBytes
 
     INWAV:  cpu time    0.0000: real time    0.0000
 Broyden mixing: mesh for mixing (old mesh)
   NGX = 21   NGY = 21   NGZ = 65
  (NGX  = 72   NGY  = 72   NGZ  =216)
  gives a total of  28665 points

 initial charge density was supplied:
 charge density of overlapping atoms calculated
 number of electron      58.0000000 magnetization       0.0000000
 keeping initial charge density in first step


--------------------------------------------------------------------------------------------------------


 Maximum index for augmentation-charges         1755 (set IRDMAX)


--------------------------------------------------------------------------------------------------------


 First call to EWALD:  gamma=   0.178
 Maximum number of real-space cells 4x 4x 2
 Maximum number of reciprocal cells 2x 2x 5

    FEWALD:  cpu time    0.0020: real time    0.0019


--------------------------------------- Iteration      1(   1)  ---------------------------------------


    POTLOK:  cpu time    0.1330: real time    0.1934
    SETDIJ:  cpu time    0.0838: real time    0.1195
    TRIAL :  cpu time    0.3281: real time    0.3581
    CORREC:  cpu time    0.0008: real time    0.0009
    --------------------------------------------
      LOOP:  cpu time    0.5487: real time    0.6813

 eigenvalue-minimisations  :   288
 total energy-change (2. order) : 0.3439435E+03  (-0.1481661E+04)
 number of electron      58.0000000 magnetization       0.0000000
 augmentation part       58.0000000 magnetization       0.0000000

 Free energy of the ion-electron system (eV)
  ---------------------------------------------------
  alpha Z        PSCENC =        16.78717852
  Ewald energy   TEWEN  =      4433.43074864
  -Hartree energ DENC   =     -7227.02621637
  -exchange      EXHF   =         0.00000000
  -V(xc)+E(xc)   XCENC  =       -74.11363075
  PAW double counting   =      2741.26008514    -2598.96964575
  entropy T*S    EENTRO =        -0.00829334
  eigenvalues    EBANDS =       -31.19007909
  atomic energy  EATOM  =      3083.77332950
  ---------------------------------------------------
  free energy    TOTEN  =       343.94347652 eV

  energy without entropy =      343.95176986  energy(sigma->0) =      343.94762319


--------------------------------------------------------------------------------------------------------




--------------------------------------- Iteration      1(   2)  ---------------------------------------


    TRIAL :  cpu time    0.4748: real time    0.4751
    CORREC:  cpu time    0.0006: real time    0.0005
    --------------------------------------------
      LOOP:  cpu time    0.4996: real time    0.5009

 eigenvalue-minimisations  :   504
 total energy-change (2. order) :-0.3499736E+03  (-0.3499447E+03)
 number of electron      58.0000000 magnetization       0.0000000
 augmentation part       58.0000000 magnetization       0.0000000

 Free energy of the ion-electron system (eV)
  ---------------------------------------------------
  alpha Z        PSCENC =        16.78717852
  Ewald energy   TEWEN  =      4433.43074864
  -Hartree energ DENC   =     -7227.02621637
  -exchange      EXHF   =         0.00000000
  -V(xc)+E(xc)   XCENC  =       -74.11363075
  PAW double counting   =      2741.26008514    -2598.96964575
  entropy T*S    EENTRO =        -0.00774866
  eigenvalues    EBANDS =      -381.16422135
  atomic energy  EATOM  =      3083.77332950
  ---------------------------------------------------
  free energy    TOTEN  =        -6.03012106 eV

  energy without entropy =       -6.02237240  energy(sigma->0) =       -6.02624673


--------------------------------------------------------------------------------------------------------




--------------------------------------- Iteration      1(   3)  ---------------------------------------


    TRIAL :  cpu time    0.2582: real time    0.2582
    CORREC:  cpu time    0.0006: real time    0.0005
    --------------------------------------------
      LOOP:  cpu time    0.2622: real time    0.2622

 eigenvalue-minimisations  :   288
 total energy-change (2. order) :-0.2016701E+02  (-0.2016699E+02)
 number of electron      58.0000000 magnetization       0.0000000
 augmentation part       58.0000000 magnetization       0.0000000

 Free energy of the ion-electron system (eV)
  ---------------------------------------------------
  alpha Z        PSCENC =        16.78717852
  Ewald energy   TEWEN  =      4433.43074864
  -Hartree energ DENC   =     -7227.02621637
  -exchange      EXHF   =         0.00000000
  -V(xc)+E(xc)   XCENC  =       -74.11363075
  PAW double counting   =      2741.26008514    -2598.96964575
  entropy T*S    EENTRO =        -0.00771312
  eigenvalues    EBANDS =      -401.33126690
  atomic energy  EATOM  =      3083.77332950
  ---------------------------------------------------
  free energy    TOTEN  =       -26.19713107 eV

  energy without entropy =      -26.18941795  energy(sigma->0) =      -26.19327451


--------------------------------------------------------------------------------------------------------




--------------------------------------- Iteration      1(   4)  ---------------------------------------


    TRIAL :  cpu time    0.4628: real time    0.4629
    CORREC:  cpu time    0.0005: real time    0.0005
    --------------------------------------------
      LOOP:  cpu time    0.4636: real time    0.4637

 eigenvalue-minimisations  :   504
 total energy-change (2. order) :-0.5966557E+00  (-0.5966557E+00)
 number of electron      58.0000000 magnetization       0.0000000
 augmentation part       58.0000000 magnetization       0.0000000

 Free energy of the ion-electron system (eV)
  ---------------------------------------------------
  alpha Z        PSCENC =        16.78717852
  Ewald energy   TEWEN  =      4433.43074864
  -Hartree energ DENC   =     -7227.02621637
  -exchange      EXHF   =         0.00000000
  -V(xc)+E(xc)   XCENC  =       -74.11363075
  PAW double counting   =      2741.26008514    -2598.96964575
  entropy T*S    EENTRO =        -0.00771328
  eigenvalues    EBANDS =      -401.92792241
  atomic energy  EATOM  =      3083.77332950
  ---------------------------------------------------
  free energy    TOTEN  =       -26.79378675 eV

  energy without entropy =      -26.78607347  energy(sigma->0) =      -26.78993011


--------------------------------------------------------------------------------------------------------




--------------------------------------- Iteration      1(   5)  ---------------------------------------


    TRIAL :  cpu time    0.4624: real time    0.4627
    CORREC:  cpu time    0.0006: real time    0.0005
    CHARGE:  cpu time    0.2229: real time    0.2240
    --------------------------------------------
      LOOP:  cpu time    0.6864: real time    0.6877

 eigenvalue-minimisations  :   432
 total energy-change (2. order) :-0.1420438E-02  (-0.1420437E-02)
 number of electron      58.0000005 magnetization      -0.0000000
 augmentation part       -3.7169944 magnetization      -0.0000017

 Free energy of the ion-electron system (eV)
  ---------------------------------------------------
  alpha Z        PSCENC =        16.78717852
  Ewald energy   TEWEN  =      4433.43074864
  -Hartree energ DENC   =     -7227.02621637
  -exchange      EXHF   =         0.00000000
  -V(xc)+E(xc)   XCENC  =       -74.11363075
  PAW double counting   =      2741.26008514    -2598.96964575
  entropy T*S    EENTRO =        -0.00771332
  eigenvalues    EBANDS =      -401.92934282
  atomic energy  EATOM  =      3083.77332950
  ---------------------------------------------------
  free energy    TOTEN  =       -26.79520719 eV

  energy without entropy =      -26.78749387  energy(sigma->0) =      -26.79135053


--------------------------------------------------------------------------------------------------------




--------------------------------------- Iteration      1(   6)  ---------------------------------------


    POTLOK:  cpu time    0.0644: real time    0.0662
    SETDIJ:  cpu time    0.0622: real time    0.0622
    TRIAL :  cpu time    0.3599: real time    0.6755
    CORREC:  cpu time    0.3740: real time    0.4225
    CHARGE:  cpu time    0.2131: real time    0.2131
    --------------------------------------------
      LOOP:  cpu time    1.0796: real time    1.4453

 eigenvalue-minimisations  :     0
 total energy-change (2. order) : 0.3412370E+02  (-0.3076606E+02)
 number of electron      58.0000005 magnetization       0.0000000
 augmentation part       -0.9404638 magnetization       0.0000179

 Free energy of the ion-electron system (eV)
  ---------------------------------------------------
  alpha Z        PSCENC =        16.78717852
  Ewald energy   TEWEN  =      4433.43074864
  -Hartree energ DENC   =     -6939.86185721
  -exchange      EXHF   =         0.00000000
  -V(xc)+E(xc)   XCENC  =       -79.24139952
  PAW double counting   =      3222.84833856    -3059.69067722
  entropy T*S    EENTRO =        -0.00901168
  eigenvalues    EBANDS =      -670.70945631
  atomic energy  EATOM  =      3083.77332950
  ---------------------------------------------------
  free energy    TOTEN  =         7.32849165 eV

  energy without entropy =        7.33750333  energy(sigma->0) =        7.33299749


--------------------------------------------------------------------------------------------------------




--------------------------------------- Iteration      1(   7)  ---------------------------------------


    POTLOK:  cpu time    0.0544: real time    0.0544
    SETDIJ:  cpu time    0.0646: real time    0.0648
    TRIAL :  cpu time    0.1582: real time    0.1712
    CORREC:  cpu time    0.3705: real time    0.3705
    CHARGE:  cpu time    0.2157: real time    0.2158
    --------------------------------------------
      LOOP:  cpu time    0.8690: real time    0.8822

 eigenvalue-minimisations  :     0
 total energy-change (2. order) :-0.2644268E+02  (-0.2671197E+01)
 number of electron      58.0000005 magnetization       0.0000000
 augmentation part       -1.4812843 magnetization       0.0000174

 Free energy of the ion-electron system (eV)
  ---------------------------------------------------
  alpha Z        PSCENC =        16.78717852
  Ewald energy   TEWEN  =      4433.43074864
  -Hartree energ DENC   =     -7283.55823286
  -exchange      EXHF   =         0.00000000
  -V(xc)+E(xc)   XCENC  =       -72.46411889
  PAW double counting   =      3669.34885601    -3542.03861211
  entropy T*S    EENTRO =        -0.00936820
  eigenvalues    EBANDS =      -324.38432388
  atomic energy  EATOM  =      3083.77332950
  ---------------------------------------------------
  free energy    TOTEN  =       -19.11418674 eV

  energy without entropy =      -19.10481854  energy(sigma->0) =      -19.10950264


--------------------------------------------------------------------------------------------------------




--------------------------------------- Iteration      1(   8)  ---------------------------------------


    POTLOK:  cpu time    0.0533: real time    0.0533
    SETDIJ:  cpu time    0.0630: real time    0.0630
    TRIAL :  cpu time    0.1538: real time    0.1542
    CORREC:  cpu time    0.3713: real time    0.3713
    CHARGE:  cpu time    0.2163: real time    0.2164
    --------------------------------------------
      LOOP:  cpu time    0.8596: real time    0.8601

 eigenvalue-minimisations  :     0
 total energy-change (2. order) :-0.2803163E+01  (-0.2742298E+00)
 number of electron      58.0000005 magnetization       0.0000000
 augmentation part       -1.5134510 magnetization       0.0000112

 Free energy of the ion-electron system (eV)
  ---------------------------------------------------
  alpha Z        PSCENC =        16.78717852
  Ewald energy   TEWEN  =      4433.43074864
  -Hartree energ DENC   =     -7205.83666905
  -exchange      EXHF   =         0.00000000
  -V(xc)+E(xc)   XCENC  =       -74.17256260
  PAW double counting   =      3514.53298375    -3376.68756704
  entropy T*S    EENTRO =        -0.00845939
  eigenvalues    EBANDS =      -413.73542315
  atomic energy  EATOM  =      3083.77332950
  ---------------------------------------------------
  free energy    TOTEN  =       -21.91734961 eV

  energy without entropy =      -21.90889023  energy(sigma->0) =      -21.91311992


--------------------------------------------------------------------------------------------------------




--------------------------------------- Iteration      1(   9)  ---------------------------------------


    POTLOK:  cpu time    0.0528: real time    0.0534
    SETDIJ:  cpu time    0.0636: real time    0.0636
    TRIAL :  cpu time    0.1522: real time    0.1521
    CORREC:  cpu time    0.3918: real time    0.3945
    CHARGE:  cpu time    0.2122: real time    0.2122
    --------------------------------------------
      LOOP:  cpu time    0.8750: real time    0.8782

 eigenvalue-minimisations  :     0
 total energy-change (2. order) :-0.3081025E+00  (-0.5275793E+00)
 number of electron      58.0000005 magnetization      -0.0000000
 augmentation part       -1.4268487 magnetization      -0.0000180

 Free energy of the ion-electron system (eV)
  ---------------------------------------------------
  alpha Z        PSCENC =        16.78717852
  Ewald energy   TEWEN  =      4433.43074864
  -Hartree energ DENC   =     -7202.21707518
  -exchange      EXHF   =         0.00000000
  -V(xc)+E(xc)   XCENC  =       -74.29294120
  PAW double counting   =      3503.76000405    -3365.04052539
  entropy T*S    EENTRO =        -0.01398353
  eigenvalues    EBANDS =      -418.41771166
  atomic energy  EATOM  =      3083.77332950
  ---------------------------------------------------
  free energy    TOTEN  =       -22.22545210 eV

  energy without entropy =      -22.21146857  energy(sigma->0) =      -22.21846033


--------------------------------------------------------------------------------------------------------




--------------------------------------- Iteration      1(  10)  ---------------------------------------


    POTLOK:  cpu time    0.0543: real time    0.0558
    SETDIJ:  cpu time    0.0616: real time    0.0616
    TRIAL :  cpu time    0.1537: real time    0.1538
    CORREC:  cpu time    0.3727: real time    0.3730
    CHARGE:  cpu time    0.2138: real time    0.2138
    --------------------------------------------
      LOOP:  cpu time    0.8592: real time    0.8610

 eigenvalue-minimisations  :     0
 total energy-change (2. order) :-0.1913298E+00  (-0.8696440E+00)
 number of electron      58.0000005 magnetization       0.0000000
 augmentation part       -1.4382526 magnetization       0.0000344

 Free energy of the ion-electron system (eV)
  ---------------------------------------------------
  alpha Z        PSCENC =        16.78717852
  Ewald energy   TEWEN  =      4433.43074864
  -Hartree energ DENC   =     -7225.78357586
  -exchange      EXHF   =         0.00000000
  -V(xc)+E(xc)   XCENC  =       -74.24219122
  PAW double counting   =      3490.11890408    -3349.62268872
  entropy T*S    EENTRO =        -0.01340290
  eigenvalues    EBANDS =      -396.86450331
  atomic energy  EATOM  =      3083.77332950
  ---------------------------------------------------
  free energy    TOTEN  =       -22.41678189 eV

  energy without entropy =      -22.40337899  energy(sigma->0) =      -22.41008044


--------------------------------------------------------------------------------------------------------




--------------------------------------- Iteration      1(  11)  ---------------------------------------


    POTLOK:  cpu time    0.0535: real time    0.0536
    SETDIJ:  cpu time    0.0628: real time    0.0628
    TRIAL :  cpu time    0.1528: real time    0.1529
    CORREC:  cpu time    0.3710: real time    0.3712
    CHARGE:  cpu time    0.2111: real time    0.2111
    --------------------------------------------
      LOOP:  cpu time    0.8532: real time    0.8534

 eigenvalue-minimisations  :     0
 total energy-change (2. order) :-0.2496696E+00  (-0.4526519E+00)
 number of electron      58.0000005 magnetization      -0.0000000
 augmentation part       -1.4461369 magnetization      -0.0000069

 Free energy of the ion-electron system (eV)
  ---------------------------------------------------
  alpha Z        PSCENC =        16.78717852
  Ewald energy   TEWEN  =      4433.43074864
  -Hartree energ DENC   =     -7223.77889165
  -exchange      EXHF   =         0.00000000
  -V(xc)+E(xc)   XCENC  =       -74.27706358
  PAW double counting   =      3487.06059188    -3346.36561502
  entropy T*S    EENTRO =        -0.01274544
  eigenvalues    EBANDS =      -399.28332693
  atomic energy  EATOM  =      3083.77332950
  ---------------------------------------------------
  free energy    TOTEN  =       -22.66645152 eV

  energy without entropy =      -22.65370608  energy(sigma->0) =      -22.66007880


--------------------------------------------------------------------------------------------------------




--------------------------------------- Iteration      1(  12)  ---------------------------------------


    POTLOK:  cpu time    0.0530: real time    0.0529
    SETDIJ:  cpu time    0.0650: real time    0.0651
    TRIAL :  cpu time    0.1525: real time    0.1525
    CORREC:  cpu time    0.3724: real time    0.3724
    CHARGE:  cpu time    0.2132: real time    0.2134
    --------------------------------------------
      LOOP:  cpu time    0.8586: real time    0.8581

 eigenvalue-minimisations  :     0
 total energy-change (2. order) :-0.2336034E+00  (-0.1302173E+00)
 number of electron      58.0000005 magnetization       0.0000000
 augmentation part       -1.4496155 magnetization       0.0000151

 Free energy of the ion-electron system (eV)
  ---------------------------------------------------
  alpha Z        PSCENC =        16.78717852
  Ewald energy   TEWEN  =      4433.43074864
  -Hartree energ DENC   =     -7222.33450868
  -exchange      EXHF   =         0.00000000
  -V(xc)+E(xc)   XCENC  =       -74.30232312
  PAW double counting   =      3484.63629568    -3343.79667469
  entropy T*S    EENTRO =        -0.01256635
  eigenvalues    EBANDS =      -401.08135531
  atomic energy  EATOM  =      3083.77332950
  ---------------------------------------------------
  free energy    TOTEN  =       -22.90005489 eV

  energy without entropy =      -22.88748854  energy(sigma->0) =      -22.89377172


--------------------------------------------------------------------------------------------------------




--------------------------------------- Iteration      1(  13)  ---------------------------------------


    POTLOK:  cpu time    0.0532: real time    0.0532
    SETDIJ:  cpu time    0.0629: real time    0.0629
    TRIAL :  cpu time    0.1536: real time    0.1536
    CORREC:  cpu time    0.3695: real time    0.3695
    CHARGE:  cpu time    0.2132: real time    0.2133
    --------------------------------------------
      LOOP:  cpu time    0.8534: real time    0.8541

 eigenvalue-minimisations  :     0
 total energy-change (2. order) :-0.1045285E+00  (-0.2518730E-01)
 number of electron      58.0000005 magnetization      -0.0000000
 augmentation part       -1.4525639 magnetization       0.0000064

 Free energy of the ion-electron system (eV)
  ---------------------------------------------------
  alpha Z        PSCENC =        16.78717852
  Ewald energy   TEWEN  =      4433.43074864
  -Hartree energ DENC   =     -7221.63062387
  -exchange      EXHF   =         0.00000000
  -V(xc)+E(xc)   XCENC  =       -74.31361921
  PAW double counting   =      3483.30037189    -3342.38456065
  entropy T*S    EENTRO =        -0.01287237
  eigenvalues    EBANDS =      -401.95484184
  atomic energy  EATOM  =      3083.77332950
  ---------------------------------------------------
  free energy    TOTEN  =       -23.00458334 eV

  energy without entropy =      -22.99171097  energy(sigma->0) =      -22.99814715


--------------------------------------------------------------------------------------------------------




--------------------------------------- Iteration      1(  14)  ---------------------------------------


    POTLOK:  cpu time    0.0532: real time    0.0532
    SETDIJ:  cpu time    0.0627: real time    0.0630
    TRIAL :  cpu time    0.1531: real time    0.1530
    CORREC:  cpu time    0.3694: real time    0.3695
    CHARGE:  cpu time    0.2157: real time    0.2157
    --------------------------------------------
      LOOP:  cpu time    0.8564: real time    0.8568

 eigenvalue-minimisations  :     0
 total energy-change (2. order) :-0.2785286E-01  (-0.4115583E-01)
 number of electron      58.0000005 magnetization      -0.0000000
 augmentation part       -1.4569354 magnetization       0.0000185

 Free energy of the ion-electron system (eV)
  ---------------------------------------------------
  alpha Z        PSCENC =        16.78717852
  Ewald energy   TEWEN  =      4433.43074864
  -Hartree energ DENC   =     -7220.80033964
  -exchange      EXHF   =         0.00000000
  -V(xc)+E(xc)   XCENC  =       -74.32227270
  PAW double counting   =      3481.39980371    -3340.38131905
  entropy T*S    EENTRO =        -0.01390112
  eigenvalues    EBANDS =      -402.90669282
  atomic energy  EATOM  =      3083.77332950
  ---------------------------------------------------
  free energy    TOTEN  =       -23.03243620 eV

  energy without entropy =      -23.01853508  energy(sigma->0) =      -23.02548564


--------------------------------------------------------------------------------------------------------




--------------------------------------- Iteration      1(  15)  ---------------------------------------


    POTLOK:  cpu time    0.0538: real time    0.0538
    SETDIJ:  cpu time    0.0644: real time    0.0644
    TRIAL :  cpu time    0.1535: real time    0.1539
    CORREC:  cpu time    0.3808: real time    0.3829
    CHARGE:  cpu time    0.2124: real time    0.2129
    --------------------------------------------
      LOOP:  cpu time    0.8667: real time    0.8697

 eigenvalue-minimisations  :     0
 total energy-change (2. order) :-0.4259094E-01  (-0.1343379E+00)
 number of electron      58.0000005 magnetization      -0.0000000
 augmentation part       -1.4596997 magnetization       0.0000016

 Free energy of the ion-electron system (eV)
  ---------------------------------------------------
  alpha Z        PSCENC =        16.78717852
  Ewald energy   TEWEN  =      4433.43074864
  -Hartree energ DENC   =     -7219.07290568
  -exchange      EXHF   =         0.00000000
  -V(xc)+E(xc)   XCENC  =       -74.33582117
  PAW double counting   =      3476.56302266    -3335.29901437
  entropy T*S    EENTRO =        -0.01730459
  eigenvalues    EBANDS =      -404.90766412
  atomic energy  EATOM  =      3083.77332950
  ---------------------------------------------------
  free energy    TOTEN  =       -23.07502713 eV

  energy without entropy =      -23.05772255  energy(sigma->0) =      -23.06637484


--------------------------------------------------------------------------------------------------------




--------------------------------------- Iteration      1(  16)  ---------------------------------------


    POTLOK:  cpu time    0.0540: real time    0.0555
    SETDIJ:  cpu time    0.0634: real time    0.0634
    TRIAL :  cpu time    0.1523: real time    0.1523
    CORREC:  cpu time    0.3694: real time    0.3697
    CHARGE:  cpu time    0.2128: real time    0.2128
    --------------------------------------------
      LOOP:  cpu time    0.8549: real time    0.8566

 eigenvalue-minimisations  :     0
 total energy-change (2. order) :-0.1421452E+00  (-0.1565668E-01)
 number of electron      58.0000005 magnetization       0.0000000
 augmentation part       -1.4575554 magnetization       0.0000058

 Free energy of the ion-electron system (eV)
  ---------------------------------------------------
  alpha Z        PSCENC =        16.78717852
  Ewald energy   TEWEN  =      4433.43074864
  -Hartree energ DENC   =     -7214.08077814
  -exchange      EXHF   =         0.00000000
  -V(xc)+E(xc)   XCENC  =       -74.36339123
  PAW double counting   =      3459.57299620    -3317.42792611
  entropy T*S    EENTRO =        -0.01755679
  eigenvalues    EBANDS =      -410.89202513
  atomic energy  EATOM  =      3083.77332950
  ---------------------------------------------------
  free energy    TOTEN  =       -23.21717233 eV

  energy without entropy =      -23.19961554  energy(sigma->0) =      -23.20839393


--------------------------------------------------------------------------------------------------------




--------------------------------------- Iteration      1(  17)  ---------------------------------------


    POTLOK:  cpu time    0.0532: real time    0.0532
    SETDIJ:  cpu time    0.0627: real time    0.0627
    TRIAL :  cpu time    0.1536: real time    0.1536
    CORREC:  cpu time    0.3671: real time    0.3674
    CHARGE:  cpu time    0.2152: real time    0.2152
    --------------------------------------------
      LOOP:  cpu time    0.8536: real time    0.8538

 eigenvalue-minimisations  :     0
 total energy-change (2. order) :-0.2398756E-01  (-0.5313662E-02)
 number of electron      58.0000005 magnetization       0.0000000
 augmentation part       -1.4558800 magnetization       0.0000089

 Free energy of the ion-electron system (eV)
  ---------------------------------------------------
  alpha Z        PSCENC =        16.78717852
  Ewald energy   TEWEN  =      4433.43074864
  -Hartree energ DENC   =     -7213.88493971
  -exchange      EXHF   =         0.00000000
  -V(xc)+E(xc)   XCENC  =       -74.36154472
  PAW double counting   =      3457.77284975    -3315.53857700
  entropy T*S    EENTRO =        -0.01760735
  eigenvalues    EBANDS =      -411.20264809
  atomic energy  EATOM  =      3083.77332950
  ---------------------------------------------------
  free energy    TOTEN  =       -23.24115989 eV

  energy without entropy =      -23.22355253  energy(sigma->0) =      -23.23235621


--------------------------------------------------------------------------------------------------------




--------------------------------------- Iteration      1(  18)  ---------------------------------------


    POTLOK:  cpu time    0.0544: real time    0.0543
    SETDIJ:  cpu time    0.0628: real time    0.0629
    TRIAL :  cpu time    0.1521: real time    0.1526
    CORREC:  cpu time    0.3741: real time    0.3743
    CHARGE:  cpu time    0.2177: real time    0.2177
    --------------------------------------------
      LOOP:  cpu time    0.8639: real time    0.8639

 eigenvalue-minimisations  :     0
 total energy-change (2. order) :-0.5291086E-02  (-0.1500876E-01)
 number of electron      58.0000005 magnetization      -0.0000000
 augmentation part       -1.4197422 magnetization       0.0000061

 Free energy of the ion-electron system (eV)
  ---------------------------------------------------
  alpha Z        PSCENC =        16.78717852
  Ewald energy   TEWEN  =      4433.43074864
  -Hartree energ DENC   =     -7214.15454631
  -exchange      EXHF   =         0.00000000
  -V(xc)+E(xc)   XCENC  =       -74.35732987
  PAW double counting   =      3457.46538479    -3315.22763553
  entropy T*S    EENTRO =        -0.01768133
  eigenvalues    EBANDS =      -410.94597337
  atomic energy  EATOM  =      3083.77332950
  ---------------------------------------------------
  free energy    TOTEN  =       -23.24645097 eV

  energy without entropy =      -23.22876965  energy(sigma->0) =      -23.23761031


--------------------------------------------------------------------------------------------------------




--------------------------------------- Iteration      1(  19)  ---------------------------------------


    POTLOK:  cpu time    0.0536: real time    0.0536
    SETDIJ:  cpu time    0.0633: real time    0.0633
    TRIAL :  cpu time    0.1545: real time    0.1545
    CORREC:  cpu time    0.3726: real time    0.3726
    CHARGE:  cpu time    0.2144: real time    0.2147
    --------------------------------------------
      LOOP:  cpu time    0.8598: real time    0.8609

 eigenvalue-minimisations  :     0
 total energy-change (2. order) :-0.1469707E-01  (-0.1840017E-02)
 number of electron      58.0000005 magnetization       0.0000000
 augmentation part       -1.4195452 magnetization       0.0000067

 Free energy of the ion-electron system (eV)
  ---------------------------------------------------
  alpha Z        PSCENC =        16.78717852
  Ewald energy   TEWEN  =      4433.43074864
  -Hartree energ DENC   =     -7222.65440109
  -exchange      EXHF   =         0.00000000
  -V(xc)+E(xc)   XCENC  =       -74.24789250
  PAW double counting   =      3457.34921533    -3315.44228872
  entropy T*S    EENTRO =        -0.01766176
  eigenvalues    EBANDS =      -402.23935641
  atomic energy  EATOM  =      3083.77332950
  ---------------------------------------------------
  free energy    TOTEN  =       -23.26114804 eV

  energy without entropy =      -23.24348628  energy(sigma->0) =      -23.25231716


--------------------------------------------------------------------------------------------------------




--------------------------------------- Iteration      1(  20)  ---------------------------------------


    POTLOK:  cpu time    0.0532: real time    0.0532
    SETDIJ:  cpu time    0.0640: real time    0.0641
    TRIAL :  cpu time    0.1531: real time    0.1531
    CORREC:  cpu time    0.3791: real time    0.3791
    CHARGE:  cpu time    0.2179: real time    0.2179
    --------------------------------------------
      LOOP:  cpu time    0.8710: real time    0.8710

 eigenvalue-minimisations  :     0
 total energy-change (2. order) :-0.1916252E-02  (-0.1500367E-01)
 number of electron      58.0000005 magnetization      -0.0000000
 augmentation part       -1.4605478 magnetization       0.0000004

 Free energy of the ion-electron system (eV)
  ---------------------------------------------------
  alpha Z        PSCENC =        16.78717852
  Ewald energy   TEWEN  =      4433.43074864
  -Hartree energ DENC   =     -7223.18771077
  -exchange      EXHF   =         0.00000000
  -V(xc)+E(xc)   XCENC  =       -74.24516058
  PAW double counting   =      3456.49431942    -3314.57854742
  entropy T*S    EENTRO =        -0.01772378
  eigenvalues    EBANDS =      -401.71955985
  atomic energy  EATOM  =      3083.77332950
  ---------------------------------------------------
  free energy    TOTEN  =       -23.26306429 eV

  energy without entropy =      -23.24534051  energy(sigma->0) =      -23.25420240


--------------------------------------------------------------------------------------------------------




--------------------------------------- Iteration      1(  21)  ---------------------------------------


    POTLOK:  cpu time    0.0536: real time    0.0538
    SETDIJ:  cpu time    0.0646: real time    0.0646
    TRIAL :  cpu time    0.1528: real time    0.1528
    CORREC:  cpu time    0.3739: real time    0.3739
    CHARGE:  cpu time    0.2151: real time    0.2151
    --------------------------------------------
      LOOP:  cpu time    0.8622: real time    0.8625

 eigenvalue-minimisations  :     0
 total energy-change (2. order) :-0.1510358E-01  (-0.5029893E-03)
 number of electron      58.0000005 magnetization       0.0000000
 augmentation part       -1.4601651 magnetization       0.0000002

 Free energy of the ion-electron system (eV)
  ---------------------------------------------------
  alpha Z        PSCENC =        16.78717852
  Ewald energy   TEWEN  =      4433.43074864
  -Hartree energ DENC   =     -7221.68678906
  -exchange      EXHF   =         0.00000000
  -V(xc)+E(xc)   XCENC  =       -74.33388249
  PAW double counting   =      3442.07618432    -3299.60734375
  entropy T*S    EENTRO =        -0.01776268
  eigenvalues    EBANDS =      -403.69986978
  atomic energy  EATOM  =      3083.77332950
  ---------------------------------------------------
  free energy    TOTEN  =       -23.27816787 eV

  energy without entropy =      -23.26040519  energy(sigma->0) =      -23.26928653


--------------------------------------------------------------------------------------------------------




--------------------------------------- Iteration      1(  22)  ---------------------------------------


    POTLOK:  cpu time    0.0535: real time    0.0535
    SETDIJ:  cpu time    0.0627: real time    0.0627
    TRIAL :  cpu time    0.1538: real time    0.1542
    CORREC:  cpu time    1.4936: real time    1.4938
    CHARGE:  cpu time    0.2128: real time    0.2128
    --------------------------------------------
      LOOP:  cpu time    1.9785: real time    1.9791

 eigenvalue-minimisations  :     0
 total energy-change (2. order) :-0.5172554E-03  (-0.2419820E+00)
 number of electron      58.0000004 magnetization      -0.0000000
 augmentation part       -1.4734522 magnetization       0.0002393

 Free energy of the ion-electron system (eV)
  ---------------------------------------------------
  alpha Z        PSCENC =        16.78717852
  Ewald energy   TEWEN  =      4433.43074864
  -Hartree energ DENC   =     -7221.68199934
  -exchange      EXHF   =         0.00000000
  -V(xc)+E(xc)   XCENC  =       -74.33336340
  PAW double counting   =      3441.52524028    -3299.06324151
  entropy T*S    EENTRO =        -0.02350362
  eigenvalues    EBANDS =      -403.69881515
  atomic energy  EATOM  =      3083.77332950
  ---------------------------------------------------
  free energy    TOTEN  =       -23.27868512 eV

  energy without entropy =      -23.25518151  energy(sigma->0) =      -23.26693331


--------------------------------------------------------------------------------------------------------




--------------------------------------- Iteration      1(  23)  ---------------------------------------


    POTLOK:  cpu time    0.0532: real time    0.0533
    SETDIJ:  cpu time    0.0644: real time    0.0644
    TRIAL :  cpu time    0.1540: real time    0.1544
    CORREC:  cpu time    0.3934: real time    0.3952
    CHARGE:  cpu time    0.2193: real time    0.2194
    --------------------------------------------
      LOOP:  cpu time    0.8857: real time    0.8881

 eigenvalue-minimisations  :     0
 total energy-change (2. order) : 0.3704599E+00  (-0.8524690E-01)
 number of electron      58.0000004 magnetization      -0.0000000
 augmentation part       -1.4600161 magnetization      -0.0009661

 Free energy of the ion-electron system (eV)
  ---------------------------------------------------
  alpha Z        PSCENC =        16.78717852
  Ewald energy   TEWEN  =      4433.43074864
  -Hartree energ DENC   =     -7202.95841706
  -exchange      EXHF   =         0.00000000
  -V(xc)+E(xc)   XCENC  =       -74.49800307
  PAW double counting   =      3441.49656117    -3299.51195085
  entropy T*S    EENTRO =        -0.02411218
  eigenvalues    EBANDS =      -421.40416848
  atomic energy  EATOM  =      3083.77332950
  ---------------------------------------------------
  free energy    TOTEN  =       -22.90822524 eV

  energy without entropy =      -22.88411305  energy(sigma->0) =      -22.89616915


--------------------------------------------------------------------------------------------------------




--------------------------------------- Iteration      1(  24)  ---------------------------------------


    POTLOK:  cpu time    0.0600: real time    0.0618
    SETDIJ:  cpu time    0.0618: real time    0.0618
    TRIAL :  cpu time    0.1555: real time    0.1555
    CORREC:  cpu time    0.3812: real time    0.3815
    CHARGE:  cpu time    0.2125: real time    0.2125
    --------------------------------------------
      LOOP:  cpu time    0.8716: real time    0.8764

 eigenvalue-minimisations  :     0
 total energy-change (2. order) : 0.4190494E-01  (-0.5080165E+00)
 number of electron      58.0000004 magnetization       0.0000000
 augmentation part       -1.4499091 magnetization       0.0032955

 Free energy of the ion-electron system (eV)
  ---------------------------------------------------
  alpha Z        PSCENC =        16.78717852
  Ewald energy   TEWEN  =      4433.43074864
  -Hartree energ DENC   =     -7205.87430934
  -exchange      EXHF   =         0.00000000
  -V(xc)+E(xc)   XCENC  =       -74.45876993
  PAW double counting   =      3441.28717284    -3299.40873697
  entropy T*S    EENTRO =        -0.02407336
  eigenvalues    EBANDS =      -418.37882140
  atomic energy  EATOM  =      3083.77332950
  ---------------------------------------------------
  free energy    TOTEN  =       -22.86632030 eV

  energy without entropy =      -22.84224694  energy(sigma->0) =      -22.85428362


--------------------------------------------------------------------------------------------------------




--------------------------------------- Iteration      1(  25)  ---------------------------------------


    POTLOK:  cpu time    0.0534: real time    0.0534
    SETDIJ:  cpu time    0.0628: real time    0.0629
    TRIAL :  cpu time    0.1532: real time    0.1532
    CORREC:  cpu time    0.3746: real time    0.3777
    CHARGE:  cpu time    0.2142: real time    0.2142
    --------------------------------------------
      LOOP:  cpu time    0.8600: real time    0.8630

 eigenvalue-minimisations  :     0
 total energy-change (2. order) : 0.9150097E+00  (-0.9198023E+01)
 number of electron      58.0000004 magnetization      -0.0000000
 augmentation part       -1.5262104 magnetization      -0.0110955

 Free energy of the ion-electron system (eV)
  ---------------------------------------------------
  alpha Z        PSCENC =        16.78717852
  Ewald energy   TEWEN  =      4433.43074864
  -Hartree energ DENC   =     -7209.23467235
  -exchange      EXHF   =         0.00000000
  -V(xc)+E(xc)   XCENC  =       -74.40533800
  PAW double counting   =      3441.89108406    -3300.14630021
  entropy T*S    EENTRO =        -0.01200859
  eigenvalues    EBANDS =      -414.02326742
  atomic energy  EATOM  =      3083.77332950
  ---------------------------------------------------
  free energy    TOTEN  =       -21.95131061 eV

  energy without entropy =      -21.93930201  energy(sigma->0) =      -21.94530631


--------------------------------------------------------------------------------------------------------




--------------------------------------- Iteration      1(  26)  ---------------------------------------


    POTLOK:  cpu time    0.0532: real time    0.0532
    SETDIJ:  cpu time    0.0641: real time    0.0641
    TRIAL :  cpu time    0.1522: real time    0.1530
    CORREC:  cpu time    0.3717: real time    0.3720
    CHARGE:  cpu time    0.2176: real time    0.2176
    --------------------------------------------
      LOOP:  cpu time    0.8626: real time    0.8630

 eigenvalue-minimisations  :     0
 total energy-change (2. order) : 0.2185575E+02  (-0.7492272E+02)
 number of electron      58.0000004 magnetization       0.0000000
 augmentation part       -1.6750982 magnetization       0.0223242

 Free energy of the ion-electron system (eV)
  ---------------------------------------------------
  alpha Z        PSCENC =        16.78717852
  Ewald energy   TEWEN  =      4433.43074864
  -Hartree energ DENC   =     -7220.50476977
  -exchange      EXHF   =         0.00000000
  -V(xc)+E(xc)   XCENC  =       -74.02996349
  PAW double counting   =      3472.00846999    -3331.24473720
  entropy T*S    EENTRO =        -0.00964069
  eigenvalues    EBANDS =      -380.30380345
  atomic energy  EATOM  =      3083.77332950
  ---------------------------------------------------
  free energy    TOTEN  =        -0.09555585 eV

  energy without entropy =       -0.08591516  energy(sigma->0) =       -0.09073550


--------------------------------------------------------------------------------------------------------




--------------------------------------- Iteration      1(  27)  ---------------------------------------


    POTLOK:  cpu time    0.0533: real time    0.0533
    SETDIJ:  cpu time    0.0638: real time    0.0638
    TRIAL :  cpu time    0.1535: real time    0.1535
    CORREC:  cpu time    0.3783: real time    0.3783
    CHARGE:  cpu time    0.2174: real time    0.2178
    --------------------------------------------
      LOOP:  cpu time    0.8679: real time    0.8683

 eigenvalue-minimisations  :     0
 total energy-change (2. order) : 0.5191709E+02  (-0.2698931E+03)
 number of electron      58.0000004 magnetization      -0.0000000
 augmentation part       -1.7137109 magnetization      -0.0014908

 Free energy of the ion-electron system (eV)
  ---------------------------------------------------
  alpha Z        PSCENC =        16.78717852
  Ewald energy   TEWEN  =      4433.43074864
  -Hartree energ DENC   =     -7243.58594814
  -exchange      EXHF   =         0.00000000
  -V(xc)+E(xc)   XCENC  =       -72.97811636
  PAW double counting   =      3561.86442170    -3424.62913558
  entropy T*S    EENTRO =        -0.00714391
  eigenvalues    EBANDS =      -302.83130240
  atomic energy  EATOM  =      3083.77332950
  ---------------------------------------------------
  free energy    TOTEN  =        51.82153519 eV

  energy without entropy =       51.82867910  energy(sigma->0) =       51.82510715


--------------------------------------------------------------------------------------------------------




--------------------------------------- Iteration      1(  28)  ---------------------------------------


    POTLOK:  cpu time    0.0531: real time    0.0531
    SETDIJ:  cpu time    0.0627: real time    0.0627
    TRIAL :  cpu time    0.1538: real time    0.1539
    CORREC:  cpu time    0.3719: real time    0.3719
    CHARGE:  cpu time    0.2117: real time    0.2120
    --------------------------------------------
      LOOP:  cpu time    0.8563: real time    0.8567

 eigenvalue-minimisations  :     0
 total energy-change (2. order) : 0.4450806E+02  (-0.3335471E+02)
 number of electron      58.0000005 magnetization      -0.0000000
 augmentation part       -1.0762073 magnetization      -0.0071680

 Free energy of the ion-electron system (eV)
  ---------------------------------------------------
  alpha Z        PSCENC =        16.78717852
  Ewald energy   TEWEN  =      4433.43074864
  -Hartree energ DENC   =     -7273.20590862
  -exchange      EXHF   =         0.00000000
  -V(xc)+E(xc)   XCENC  =       -71.79870279
  PAW double counting   =      3665.54146248    -3533.07852973
  entropy T*S    EENTRO =        -0.01180117
  eigenvalues    EBANDS =      -225.11283443
  atomic energy  EATOM  =      3083.77332950
  ---------------------------------------------------
  free energy    TOTEN  =        96.32959966 eV

  energy without entropy =       96.34140083  energy(sigma->0) =       96.33550025


--------------------------------------------------------------------------------------------------------




--------------------------------------- Iteration      1(  29)  ---------------------------------------


    POTLOK:  cpu time    0.0533: real time    0.0533
    SETDIJ:  cpu time    0.0629: real time    0.0629
    TRIAL :  cpu time    0.1534: real time    0.1534
    CORREC:  cpu time    0.3760: real time    0.3760
    CHARGE:  cpu time    0.2115: real time    0.2115
    --------------------------------------------
      LOOP:  cpu time    0.8582: real time    0.8583

 eigenvalue-minimisations  :     0
 total energy-change (2. order) :-0.1170833E+03  (-0.4253853E+01)
 number of electron      58.0000005 magnetization       0.0000000
 augmentation part       -1.1965054 magnetization       0.0136362

 Free energy of the ion-electron system (eV)
  ---------------------------------------------------
  alpha Z        PSCENC =        16.78717852
  Ewald energy   TEWEN  =      4433.43074864
  -Hartree energ DENC   =     -7271.94984464
  -exchange      EXHF   =         0.00000000
  -V(xc)+E(xc)   XCENC  =       -73.30782333
  PAW double counting   =      3473.42245399    -3336.05956570
  entropy T*S    EENTRO =        -0.01263426
  eigenvalues    EBANDS =      -346.83842550
  atomic energy  EATOM  =      3083.77332950
  ---------------------------------------------------
  free energy    TOTEN  =       -20.75374968 eV

  energy without entropy =      -20.74111543  energy(sigma->0) =      -20.74743256


--------------------------------------------------------------------------------------------------------




--------------------------------------- Iteration      1(  30)  ---------------------------------------


    POTLOK:  cpu time    0.0536: real time    0.0536
    SETDIJ:  cpu time    0.0645: real time    0.0645
    TRIAL :  cpu time    0.1521: real time    0.1525
    CORREC:  cpu time    0.3743: real time    0.3743
    CHARGE:  cpu time    0.2166: real time    0.2167
    --------------------------------------------
      LOOP:  cpu time    0.8628: real time    0.8632

 eigenvalue-minimisations  :     0
 total energy-change (2. order) : 0.2965972E+01  (-0.1690244E+02)
 number of electron      58.0000004 magnetization      -0.0000000
 augmentation part       -1.4052934 magnetization      -0.0197921

 Free energy of the ion-electron system (eV)
  ---------------------------------------------------
  alpha Z        PSCENC =        16.78717852
  Ewald energy   TEWEN  =      4433.43074864
  -Hartree energ DENC   =     -7256.47642293
  -exchange      EXHF   =         0.00000000
  -V(xc)+E(xc)   XCENC  =       -73.56892531
  PAW double counting   =      3466.55560431    -3327.98488093
  entropy T*S    EENTRO =        -0.01439692
  eigenvalues    EBANDS =      -360.29177475
  atomic energy  EATOM  =      3083.77332950
  ---------------------------------------------------
  free energy    TOTEN  =       -17.78777719 eV

  energy without entropy =      -17.77338027  energy(sigma->0) =      -17.78057873


--------------------------------------------------------------------------------------------------------




--------------------------------------- Iteration      1(  31)  ---------------------------------------


    POTLOK:  cpu time    0.0533: real time    0.0533
    SETDIJ:  cpu time    0.0631: real time    0.0631
    TRIAL :  cpu time    0.1545: real time    0.1548
    CORREC:  cpu time    0.3732: real time    0.3732
    CHARGE:  cpu time    0.2164: real time    0.2164
    --------------------------------------------
      LOOP:  cpu time    0.8625: real time    0.8628

 eigenvalue-minimisations  :     0
 total energy-change (2. order) : 0.2031781E+02  (-0.8068926E+02)
 number of electron      58.0000004 magnetization      -0.0000000
 augmentation part       -1.5509294 magnetization       0.0047924

 Free energy of the ion-electron system (eV)
  ---------------------------------------------------
  alpha Z        PSCENC =        16.78717852
  Ewald energy   TEWEN  =      4433.43074864
  -Hartree energ DENC   =     -7242.41426038
  -exchange      EXHF   =         0.00000000
  -V(xc)+E(xc)   XCENC  =       -73.62517744
  PAW double counting   =      3495.27886250    -3356.26854134
  entropy T*S    EENTRO =        -0.00771312
  eigenvalues    EBANDS =      -354.41771395
  atomic energy  EATOM  =      3083.77332950
  ---------------------------------------------------
  free energy    TOTEN  =         2.53002914 eV

  energy without entropy =        2.53774226  energy(sigma->0) =        2.53388570


--------------------------------------------------------------------------------------------------------




--------------------------------------- Iteration      1(  32)  ---------------------------------------


    POTLOK:  cpu time    0.0541: real time    0.0542
    SETDIJ:  cpu time    0.0623: real time    0.0623
    TRIAL :  cpu time    0.1552: real time    0.1552
    CORREC:  cpu time    0.3778: real time    0.3782
    CHARGE:  cpu time    0.2175: real time    0.2176
    --------------------------------------------
      LOOP:  cpu time    0.8687: real time    0.8691

 eigenvalue-minimisations  :     0
 total energy-change (2. order) : 0.3090109E+02  (-0.2232242E+02)
 number of electron      58.0000005 magnetization      -0.0000000
 augmentation part       -1.2803275 magnetization      -0.0123563

 Free energy of the ion-electron system (eV)
  ---------------------------------------------------
  alpha Z        PSCENC =        16.78717852
  Ewald energy   TEWEN  =      4433.43074864
  -Hartree energ DENC   =     -7247.59506752
  -exchange      EXHF   =         0.00000000
  -V(xc)+E(xc)   XCENC  =       -73.18844874
  PAW double counting   =      3539.85202662    -3402.07625646
  entropy T*S    EENTRO =        -0.01128065
  eigenvalues    EBANDS =      -317.54467961
  atomic energy  EATOM  =      3083.77332950
  ---------------------------------------------------
  free energy    TOTEN  =        33.43111784 eV

  energy without entropy =       33.44239850  energy(sigma->0) =       33.43675817


--------------------------------------------------------------------------------------------------------




--------------------------------------- Iteration      1(  33)  ---------------------------------------


    POTLOK:  cpu time    0.0532: real time    0.0532
    SETDIJ:  cpu time    0.0629: real time    0.0629
    TRIAL :  cpu time    0.1524: real time    0.1524
    CORREC:  cpu time    0.3716: real time    0.3718
    CHARGE:  cpu time    0.2153: real time    0.2153
    --------------------------------------------
      LOOP:  cpu time    0.8567: real time    0.8569

 eigenvalue-minimisations  :     0
 total energy-change (2. order) :-0.4772995E+02  (-0.2484212E+02)
 number of electron      58.0000004 magnetization       0.0000000
 augmentation part       -1.4749394 magnetization       0.0256277

 Free energy of the ion-electron system (eV)
  ---------------------------------------------------
  alpha Z        PSCENC =        16.78717852
  Ewald energy   TEWEN  =      4433.43074864
  -Hartree energ DENC   =     -7248.78131929
  -exchange      EXHF   =         0.00000000
  -V(xc)+E(xc)   XCENC  =       -73.70171319
  PAW double counting   =      3465.30614543    -3326.02876888
  entropy T*S    EENTRO =        -0.01323660
  eigenvalues    EBANDS =      -365.07314809
  atomic energy  EATOM  =      3083.77332950
  ---------------------------------------------------
  free energy    TOTEN  =       -14.29882799 eV

  energy without entropy =      -14.28559140  energy(sigma->0) =      -14.29220970


--------------------------------------------------------------------------------------------------------




--------------------------------------- Iteration      1(  34)  ---------------------------------------


    POTLOK:  cpu time    0.0531: real time    0.0531
    SETDIJ:  cpu time    0.0649: real time    0.0649
    TRIAL :  cpu time    0.1552: real time    0.1552
    CORREC:  cpu time    0.3717: real time    0.3717
    CHARGE:  cpu time    0.2139: real time    0.2143
    --------------------------------------------
      LOOP:  cpu time    0.8604: real time    0.8608

 eigenvalue-minimisations  :     0
 total energy-change (2. order) : 0.2099538E+02  (-0.8264811E+02)
 number of electron      58.0000004 magnetization       0.0000000
 augmentation part       -1.5498465 magnetization      -0.0043265

 Free energy of the ion-electron system (eV)
  ---------------------------------------------------
  alpha Z        PSCENC =        16.78717852
  Ewald energy   TEWEN  =      4433.43074864
  -Hartree energ DENC   =     -7237.07651602
  -exchange      EXHF   =         0.00000000
  -V(xc)+E(xc)   XCENC  =       -73.70588426
  PAW double counting   =      3494.92654608    -3355.32353419
  entropy T*S    EENTRO =        -0.00771312
  eigenvalues    EBANDS =      -356.10207937
  atomic energy  EATOM  =      3083.77332950
  ---------------------------------------------------
  free energy    TOTEN  =         6.69655232 eV

  energy without entropy =        6.70426544  energy(sigma->0) =        6.70040888


--------------------------------------------------------------------------------------------------------




--------------------------------------- Iteration      1(  35)  ---------------------------------------


    POTLOK:  cpu time    0.0532: real time    0.0533
    SETDIJ:  cpu time    0.0627: real time    0.0627
    TRIAL :  cpu time    0.1527: real time    0.1527
    CORREC:  cpu time    0.3772: real time    0.3772
    CHARGE:  cpu time    0.2191: real time    0.2195
    --------------------------------------------
      LOOP:  cpu time    0.8667: real time    0.8670

 eigenvalue-minimisations  :     0
 total energy-change (2. order) : 0.2492224E+02  (-0.2278513E+02)
 number of electron      58.0000005 magnetization       0.0000000
 augmentation part       -1.2989764 magnetization       0.0158729

 Free energy of the ion-electron system (eV)
  ---------------------------------------------------
  alpha Z        PSCENC =        16.78717852
  Ewald energy   TEWEN  =      4433.43074864
[...]
  eigenvalues    EBANDS =      -440.84555068
  atomic energy  EATOM  =      3083.77332950
  ---------------------------------------------------
  free energy    TOTEN  =       -25.71235708 eV

  energy without entropy =      -25.71235708  energy(sigma->0) =      -25.71235708


--------------------------------------------------------------------------------------------------------


  average scaling for gradient   0.5716


 average (electrostatic) potential at core
  the test charge radii are     1.0103  1.1875
  (the norm of the test charge is              1.0000)
       1 -53.6409       2 -53.6415       3 -98.6652       4 -98.6652       5 -98.6652
       6 -98.6643       7 -98.6643       8 -98.6643
 
 
 
 E-fermi :  -3.0381     XC(G=0):  -2.9187     alpha+bet : -2.4588


 spin component 1

 k-point     1 :       0.0000    0.0000    0.0000
  band No.  band energies     occupation 
      1     -15.9961      1.00000
      2     -15.4637      1.00000
      3     -15.1711      1.00000
      4     -15.1711      1.00000
      5     -14.7705      1.00000
      6     -14.7705      1.00000
      7      -8.3436      1.00000
      8      -7.4053      1.00000
      9      -7.2008      1.00000
     10      -7.1182      1.00000
     11      -7.1182      1.00000
     12      -7.0927      1.00000
     13      -7.0927      1.00000
     14      -6.5629      1.00000
     15      -6.2206      1.00000
     16      -6.2206      1.00000
     17      -5.7166      1.00000
     18      -5.7166      1.00000
     19      -5.5146      1.00000
     20      -5.5146      1.00000
     21      -4.6845      1.00000
     22      -4.2523      1.00000
     23      -4.2212      1.00000
     24      -4.2212      1.00000
     25      -4.0015      1.00000
     26      -4.0015      1.00000
     27      -3.7564      1.00000
     28      -3.1828      1.00000
     29      -3.1828      1.00000
     30      -2.9012      0.00000
     31      -2.5837      0.00000
     32      -2.5837      0.00000
     33      -2.0884      0.00000
     34      -2.0884      0.00000
     35      -0.1890      0.00000
     36       0.7689      0.00000

 k-point     2 :       0.5000    0.0000    0.0000
  band No.  band energies     occupation 
      1     -15.7494      1.00000
      2     -15.4862      1.00000
      3     -15.2503      1.00000
      4     -15.1809      1.00000
      5     -15.0297      1.00000
      6     -14.7800      1.00000
      7      -7.6952      1.00000
      8      -7.2951      1.00000
      9      -7.2509      1.00000
     10      -7.1744      1.00000
     11      -7.1261      1.00000
     12      -7.0291      1.00000
     13      -6.8389      1.00000
     14      -6.4872      1.00000
     15      -6.2179      1.00000
     16      -5.8722      1.00000
     17      -5.7788      1.00000
     18      -5.4460      1.00000
     19      -5.2466      1.00000
     20      -5.1925      1.00000
     21      -5.1735      1.00000
     22      -4.9253      1.00000
     23      -4.9071      1.00000
     24      -4.5599      1.00000
     25      -4.2401      1.00000
     26      -3.9988      1.00000
     27      -3.8168      1.00000
     28      -3.7032      1.00000
     29      -3.2091      1.00000
     30      -2.9150      0.00000
     31      -2.8176      0.00000
     32      -2.6720      0.00000
     33      -2.4227      0.00000
     34      -2.0751      0.00000
     35       0.4211      0.00000
     36       1.3698      0.00000

 spin component 2

 k-point     1 :       0.0000    0.0000    0.0000
  band No.  band energies     occupation 
      1     -15.9961      1.00000
      2     -15.4637      1.00000
      3     -15.1711      1.00000
      4     -15.1711      1.00000
      5     -14.7704      1.00000
      6     -14.7704      1.00000
      7      -8.3431      1.00000
      8      -7.4050      1.00000
      9      -7.2007      1.00000
     10      -7.1172      1.00000
     11      -7.1172      1.00000
     12      -7.0925      1.00000
     13      -7.0924      1.00000
     14      -6.5639      1.00000
     15      -6.2205      1.00000
     16      -6.2205      1.00000
     17      -5.7177      1.00000
     18      -5.7177      1.00000
     19      -5.5158      1.00000
     20      -5.5158      1.00000
     21      -4.6844      1.00000
     22      -4.2527      1.00000
     23      -4.2225      1.00000
     24      -4.2225      1.00000
     25      -4.0020      1.00000
     26      -4.0020      1.00000
     27      -3.7564      1.00000
     28      -3.1833      1.00000
     29      -3.1833      1.00000
     30      -2.9015      0.00000
     31      -2.5830      0.00000
     32      -2.5830      0.00000
     33      -2.0864      0.00000
     34      -2.0864      0.00000
     35      -0.1910      0.00000
     36       0.7704      0.00000

 k-point     2 :       0.5000    0.0000    0.0000
  band No.  band energies     occupation 
      1     -15.7492      1.00000
      2     -15.4862      1.00000
      3     -15.2504      1.00000
      4     -15.1809      1.00000
      5     -15.0296      1.00000
      6     -14.7799      1.00000
      7      -7.6941      1.00000
      8      -7.2947      1.00000
      9      -7.2508      1.00000
     10      -7.1739      1.00000
     11      -7.1258      1.00000
     12      -7.0280      1.00000
     13      -6.8401      1.00000
     14      -6.4859      1.00000
     15      -6.2182      1.00000
     16      -5.8724      1.00000
     17      -5.7796      1.00000
     18      -5.4486      1.00000
     19      -5.2484      1.00000
     20      -5.1945      1.00000
     21      -5.1723      1.00000
     22      -4.9274      1.00000
     23      -4.9066      1.00000
     24      -4.5602      1.00000
     25      -4.2398      1.00000
     26      -4.0005      1.00000
     27      -3.8170      1.00000
     28      -3.7039      1.00000
     29      -3.2095      1.00000
     30      -2.9142      0.00000
     31      -2.8176      0.00000
     32      -2.6713      0.00000
     33      -2.4204      0.00000
     34      -2.0732      0.00000
     35       0.4189      0.00000
     36       1.3711      0.00000


--------------------------------------------------------------------------------------------------------


 soft charge-density along one line, spin component           1
         0         1         2         3         4         5         6         7         8         9
 total charge-density along one line
 
 soft charge-density along one line, spin component           2
         0         1         2         3         4         5         6         7         8         9
 total charge-density along one line
 
 pseudopotential strength for first ion, spin component:           1
-12.675  -0.000  -0.000   0.000  -0.000 -13.011  -0.000  -0.000
 -0.000 -12.522   0.000   0.000   0.000  -0.000 -12.862   0.000
 -0.000   0.000 -12.757   0.000   0.000  -0.000   0.000 -13.091
  0.000   0.000   0.000 -12.522   0.000   0.000   0.000   0.000
 -0.000   0.000   0.000   0.000 -12.675  -0.000   0.000   0.000
-13.011  -0.000  -0.000   0.000  -0.000 -13.310  -0.000  -0.000
 -0.000 -12.862   0.000   0.000   0.000  -0.000 -13.165   0.000
 -0.000   0.000 -13.091   0.000   0.000  -0.000   0.000 -13.387
  0.000   0.000   0.000 -12.862   0.000   0.000   0.000   0.000
 -0.000   0.000   0.000   0.000 -13.011  -0.000   0.000   0.000
 -0.000   0.000  -0.003   0.000   0.000  -0.000   0.000  -0.003
 -0.000   0.000  -0.005   0.000   0.000  -0.000   0.000  -0.005
 -0.005  -0.000   0.000   0.000   0.005  -0.004  -0.000   0.000
  0.000  -0.000  -0.000  -0.000  -0.000   0.000  -0.000  -0.000
  0.005   0.000   0.000  -0.000   0.005   0.005   0.000   0.000
 -0.006  -0.000   0.000   0.000   0.007  -0.006  -0.000   0.000
  0.000  -0.000  -0.000  -0.000  -0.000   0.000  -0.000  -0.000
  0.007   0.000   0.000  -0.000   0.006   0.007   0.000   0.000
 pseudopotential strength for first ion, spin component:           2
-10.166   0.000   0.000  -0.000  -0.000 -10.582   0.000   0.000
  0.000 -10.266   0.000  -0.000  -0.000   0.000 -10.680   0.000
  0.000   0.000  -9.972   0.000   0.000   0.000   0.000 -10.392
 -0.000  -0.000   0.000 -10.266  -0.000  -0.000  -0.000   0.000
 -0.000  -0.000   0.000  -0.000 -10.166  -0.000  -0.000   0.000
-10.582   0.000   0.000  -0.000  -0.000 -10.959   0.000   0.000
  0.000 -10.680   0.000  -0.000  -0.000   0.000 -11.056   0.000
  0.000   0.000 -10.392   0.000   0.000   0.000   0.000 -10.772
 -0.000  -0.000   0.000 -10.680  -0.000  -0.000  -0.000   0.000
 -0.000  -0.000   0.000  -0.000 -10.582  -0.000  -0.000   0.000
  0.000   0.000  -0.006   0.000  -0.000   0.000   0.000  -0.006
  0.000   0.000  -0.011   0.000  -0.000   0.000   0.000  -0.011
  0.005  -0.000   0.000   0.000  -0.006   0.005  -0.000   0.000
  0.000  -0.000  -0.000  -0.000  -0.000   0.000  -0.000  -0.000
 -0.006   0.000   0.000  -0.000  -0.005  -0.005   0.000   0.000
  0.007  -0.000   0.000   0.000  -0.007   0.006  -0.000   0.000
  0.000  -0.000  -0.000  -0.000  -0.000   0.000  -0.000  -0.000
 -0.007   0.000   0.000  -0.000  -0.007  -0.007   0.000   0.000
 total augmentation occupancy for first ion, spin component:           1
  3.940  -0.001   0.000   0.001   0.000  -2.056   0.001  -0.000  -0.001  -0.000  -0.000  -0.000   0.121   0.000  -0.133  -0.001
 -0.001   5.281  -0.000  -0.000   0.001   0.001  -3.278   0.000  -0.000  -0.001   0.000   0.000  -0.001   0.000  -0.000  -0.000
  0.000  -0.000   3.536   0.000   0.000  -0.000   0.000  -1.743  -0.000  -0.000  -0.166  -0.008   0.000   0.000  -0.000   0.000
  0.001  -0.000   0.000   5.281   0.001  -0.001   0.000  -0.000  -3.278  -0.001  -0.000  -0.000   0.000   0.000  -0.001   0.000
 -0.000   0.001   0.000   0.001   3.940   0.000  -0.001  -0.000  -0.001  -2.056  -0.000   0.000  -0.133   0.000  -0.121   0.001
 -2.056   0.001  -0.000  -0.001   0.000   1.442  -0.001   0.000   0.001   0.000   0.000  -0.000  -0.148   0.000   0.164   0.008
  0.001  -3.278   0.000   0.000  -0.001  -0.001   2.743  -0.000  -0.000   0.001   0.000   0.000   0.001   0.000   0.000  -0.000
 -0.000   0.000  -1.743  -0.000  -0.000   0.000  -0.000   1.044   0.000   0.000   0.200  -0.009  -0.000   0.000   0.000   0.000
 -0.001  -0.000  -0.000  -3.278  -0.001   0.001  -0.000   0.000   2.743   0.001  -0.000   0.000  -0.000  -0.000   0.001  -0.000
 -0.000  -0.001  -0.000  -0.001  -2.056  -0.000   0.001   0.000   0.001   1.442   0.000  -0.000   0.164   0.000   0.148  -0.009
 -0.000  -0.000  -0.166  -0.000  -0.000   0.000   0.000   0.200  -0.000   0.000   1.345  -0.121   0.000   0.000   0.000   0.000
 -0.000   0.000  -0.008   0.000  -0.000  -0.000   0.000  -0.009   0.000  -0.000  -0.121   0.020   0.000  -0.000   0.000   0.000
  0.121  -0.001   0.000   0.000  -0.133  -0.148   0.001  -0.000  -0.000   0.164   0.000  -0.000   0.143   0.000  -0.000  -0.011
  0.000   0.000   0.000   0.000   0.000   0.000   0.000   0.000  -0.000   0.000   0.000  -0.000   0.000   0.182  -0.000   0.000
 -0.133  -0.000  -0.000  -0.001  -0.121   0.164   0.000   0.000   0.001   0.148   0.000  -0.000  -0.000   0.000   0.143  -0.000
 -0.001  -0.000   0.000   0.000   0.001   0.008  -0.000   0.000  -0.000  -0.009  -0.000   0.000  -0.011   0.000  -0.000   0.001
 -0.000   0.000  -0.000   0.000  -0.000   0.000   0.000   0.000  -0.000   0.000  -0.000   0.000   0.000  -0.014   0.000   0.000
  0.001  -0.000   0.000  -0.000   0.001  -0.009   0.000  -0.000  -0.000  -0.008   0.000   0.000   0.000   0.000  -0.011  -0.000
 total augmentation occupancy for first ion, spin component:           2
  3.695  -0.001   0.000   0.001  -0.000  -1.857   0.001  -0.000  -0.001   0.000  -0.000  -0.000   0.071   0.000  -0.081   0.007
 -0.001   4.828  -0.000  -0.000   0.001   0.001  -2.885   0.000   0.000  -0.001   0.000   0.000  -0.000   0.000  -0.000  -0.000
  0.000  -0.000   3.409   0.000   0.000  -0.000   0.000  -1.540  -0.000  -0.000  -0.030  -0.030   0.000   0.000  -0.000   0.000
  0.001  -0.000   0.000   4.828   0.001  -0.001  -0.000  -0.000  -2.885  -0.001  -0.000   0.000   0.000   0.000  -0.000   0.000
 -0.000   0.001   0.000   0.001   3.695  -0.000  -0.001  -0.000  -0.001  -1.857  -0.000  -0.000  -0.081   0.000  -0.071  -0.007
 -1.857   0.001  -0.000  -0.001  -0.000   0.852  -0.001   0.000   0.000   0.000   0.000   0.000  -0.028  -0.000   0.032  -0.006
  0.001  -2.885   0.000  -0.000  -0.001  -0.001   1.601  -0.000  -0.000   0.000   0.000  -0.000   0.000   0.000   0.000   0.000
 -0.000   0.000  -1.540  -0.000  -0.000   0.000  -0.000   0.670   0.000   0.000  -0.005   0.021  -0.000  -0.000   0.000  -0.000
 -0.001   0.000  -0.000  -2.885  -0.001   0.000  -0.000   0.000   1.601   0.001   0.000   0.000  -0.000  -0.000   0.000  -0.000
  0.000  -0.001  -0.000  -0.001  -1.857  -0.000   0.000   0.000   0.001   0.852  -0.000   0.000   0.032  -0.000   0.028   0.006
 -0.000   0.000  -0.030  -0.000  -0.000  -0.000  -0.000  -0.005   0.000   0.000  -0.153   0.077  -0.000  -0.000   0.000   0.000
 -0.000   0.000  -0.030  -0.000  -0.000   0.000   0.000   0.021   0.000   0.000   0.077  -0.010   0.000   0.000   0.000  -0.000
  0.071  -0.000   0.000   0.000  -0.081  -0.028   0.000  -0.000  -0.000   0.032   0.000   0.000   0.005   0.000  -0.000   0.003
  0.000   0.000   0.000   0.000   0.000  -0.000   0.000  -0.000  -0.000  -0.000  -0.000   0.000  -0.000  -0.000  -0.000   0.000
 -0.081  -0.000  -0.000  -0.000  -0.071   0.032   0.000   0.000   0.000   0.028   0.000   0.000  -0.000  -0.000   0.005  -0.000
  0.007  -0.000   0.000   0.000  -0.007  -0.006   0.000  -0.000  -0.000   0.006  -0.000   0.000   0.003   0.000  -0.000  -0.000
 -0.000   0.000  -0.000   0.000  -0.000   0.000   0.000   0.000  -0.000   0.000   0.000  -0.000   0.000   0.004   0.000  -0.000
 -0.007  -0.000  -0.000  -0.000  -0.007   0.006   0.000   0.000   0.000   0.006   0.000  -0.000   0.000   0.000   0.003   0.000


------------------------ aborting loop because EDIFF is reached ----------------------------------------


    FORLOC:  cpu time    0.0028: real time    0.0034
    FORNL :  cpu time    0.2919: real time    0.3154
    STRESS:  cpu time    1.0479: real time    1.0807
    FORCOR:  cpu time    0.0502: real time    0.0560
    OFIELD:  cpu time    0.0029: real time    0.0082

  FORCE on cell =-STRESS in cart. coord.  units (eV):
  Direction    XX          YY          ZZ          XY          YZ          ZX
  --------------------------------------------------------------------------------------
  Alpha Z    16.78718    16.78718    16.78718
  Ewald    5780.56984  5780.56984 -7127.71207    -0.00000    -0.00000     0.00000
  Hartree  6519.26540  6519.26540 -5849.77964    -0.00000    -0.00000    -0.00000
  E(xc)    -241.56156  -241.56154  -241.93439     0.00002     0.00000    -0.00000
  Local  -13301.10741-13301.10793 11971.09300    -0.00045     0.00000    -0.00000
  n-local   783.73619   783.41938   790.62645     0.27435     0.00038     0.00162
  augment  -140.23903  -140.23847  -141.08297     0.00049    -0.00000     0.00000
  Kinetic   583.33977   582.92623   582.06045     0.35865     0.00240     0.00115
  Fock        0.00000     0.00000     0.00000     0.00000     0.00000     0.00000
  -------------------------------------------------------------------------------------
  Total       0.42524     0.42524     0.05800     0.00000     0.00000     0.00000
  in kB       0.68742     0.68742     0.09376     0.00000     0.00000     0.00000
  external pressure =        0.49 kB  Pullay stress =        0.00 kB


 VOLUME and BASIS-vectors are now :
 -----------------------------------------------------------------------------
  energy-cutoff  :      334.85
  volume of cell :      991.12
      direct lattice vectors                 reciprocal lattice vectors
     7.284198123  0.000000000  0.000000000     0.137283471  0.079260649  0.000000000
    -3.642099061  6.308300621  0.000000000     0.000000000  0.158521298  0.000000000
     0.000000000  0.000000000 21.569098087     0.000000000  0.000000000  0.046362625

  length of vectors
     7.284198123  7.284198123 21.569098087     0.158521298  0.158521298  0.046362625


 FORCES acting on ions:
    Electron-Ion                     Ewald-Force                    Non-Local-Force
 -----------------------------------------------------------------------------------------------
   0.650E-06 0.130E-05 -.426E-02   -.888E-12 0.746E-11 0.108E-01   -.238E-16 0.223E-16 -.773E-02
   0.795E-06 0.120E-05 -.251E-02   0.213E-11 0.261E-11 -.146E-02   -.141E-16 0.885E-17 0.930E-02
   0.445E+02 0.105E-01 0.378E+03   -.455E+02 -.908E-02 -.380E+03   0.993E+00 -.333E-02 0.194E+01
   -.222E+02 -.386E+02 0.378E+03   0.227E+02 0.394E+02 -.380E+03   -.499E+00 -.858E+00 0.194E+01
   -.223E+02 0.385E+02 0.378E+03   0.228E+02 -.394E+02 -.380E+03   -.494E+00 0.861E+00 0.194E+01
   0.445E+02 0.299E+00 -.378E+03   -.455E+02 -.302E+00 0.380E+03   0.993E+00 -.510E-02 -.194E+01
   -.220E+02 -.387E+02 -.378E+03   0.225E+02 0.395E+02 0.380E+03   -.501E+00 -.857E+00 -.194E+01
   -.225E+02 0.384E+02 -.378E+03   0.230E+02 -.392E+02 0.380E+03   -.492E+00 0.862E+00 -.194E+01
 -----------------------------------------------------------------------------------------------
   0.150E-04 0.262E-04 -.142E-02   0.000E+00 0.142E-13 0.000E+00   0.333E-15 -.111E-15 0.141E-02
 
 
 POSITION                                       TOTAL-FORCE (eV/Angst)
 -----------------------------------------------------------------------------------
      3.64210      2.10277     10.78511         0.000000     -0.000000     -0.000302
      0.00000      4.20553     10.78332         0.000000     -0.000000      0.003605
      3.11668      0.00034      9.00000        -0.031040     -0.001774     -0.012419
      2.08406      3.60900      9.00000         0.013983      0.027768     -0.012419
      5.72556      2.69895      9.00000         0.017057     -0.025994     -0.012419
      3.11638      0.00096     12.56910        -0.030616     -0.007603      0.011318
      2.08474      3.60896     12.56910         0.008724      0.030315      0.011318
      5.72518      2.69838     12.56910         0.021892     -0.022712      0.011318
 -----------------------------------------------------------------------------------
    total drift:                                0.000015      0.000026     -0.000013


--------------------------------------------------------------------------------------------------------



  FREE ENERGIE OF THE ION-ELECTRON SYSTEM (eV)
  ---------------------------------------------------
  free  energy   TOTEN  =       -25.71235708 eV

  energy  without entropy=      -25.71235708  energy(sigma->0) =      -25.71235708
 


--------------------------------------------------------------------------------------------------------


    POTLOK:  cpu time    0.1340: real time    0.1355


--------------------------------------------------------------------------------------------------------


 writing wavefunctions
     LOOP+:  cpu time  135.4331: real time  136.4988
    4ORBIT:  cpu time    0.0000: real time    0.0000

 total amount of memory used by VASP MPI-rank0    76995. kBytes
=======================================================================

   base      :      30000. kBytes
   nonl-proj :       9732. kBytes
   fftplans  :       5951. kBytes
   grid      :      28385. kBytes
   one-center:        248. kBytes
   wavefun   :       2679. kBytes
 
  
  
 General timing and accounting informations for this job:
 ========================================================
  
                  Total CPU time used (sec):      139.838
                            User time (sec):      121.022
                          System time (sec):       18.816
                         Elapsed time (sec):      142.094
  
                   Maximum memory used (kb):      279064.
                   Average memory used (kb):           0.
  
                          Minor page faults:       293648
                          Major page faults:            0
                 Voluntary context switches:         9928
