 vasp.5.4.4.18Apr17-6-g9f103f2a35 (build Sep 16 2019 21:59:08) complex          
  
 executed on             LinuxIFC date 2021.10.31  22:44:23
 running on   72 total cores
 distrk:  each k-point on   36 cores,    2 groups
 distr:  one band on NCORES_PER_BAND=   1 cores,   36 groups


--------------------------------------------------------------------------------------------------------


 INCAR:
 POTCAR:    PAW_PBE Fe 06Sep2000                  
 POTCAR:    PAW_PBE I 08Apr2002                   

 ----------------------------------------------------------------------------- 
|                                                                             |
|           W    W    AA    RRRRR   N    N  II  N    N   GGGG   !!!           |
|           W    W   A  A   R    R  NN   N  II  NN   N  G    G  !!!           |
|           W    W  A    A  R    R  N N  N  II  N N  N  G       !!!           |
|           W WW W  AAAAAA  RRRRR   N  N N  II  N  N N  G  GGG   !            |
|           WW  WW  A    A  R   R   N   NN  II  N   NN  G    G                |
|           W    W  A    A  R    R  N    N  II  N    N   GGGG   !!!           |
|                                                                             |
|      For optimal performance we recommend to set                            |
|        NCORE= 4 - approx SQRT( number of cores)                             |
|      NCORE specifies how many cores store one orbital (NPAR=cpu/NCORE).     |
|      This setting can  greatly improve the performance of VASP for DFT.     |
|      The default,   NCORE=1            might be grossly inefficient         |
|      on modern multi-core architectures or massively parallel machines.     |
|      Do your own testing !!!!                                               |
|      Unfortunately you need to use the default for GW and RPA calculations. |
|      (for HF NCORE is supported but not extensively tested yet)             |
|                                                                             |
 ----------------------------------------------------------------------------- 


 ----------------------------------------------------------------------------- 
|                                                                             |
|           W    W    AA    RRRRR   N    N  II  N    N   GGGG   !!!           |
|           W    W   A  A   R    R  NN   N  II  NN   N  G    G  !!!           |
|           W    W  A    A  R    R  N N  N  II  N N  N  G       !!!           |
|           W WW W  AAAAAA  RRRRR   N  N N  II  N  N N  G  GGG   !            |
|           WW  WW  A    A  R   R   N   NN  II  N   NN  G    G                |
|           W    W  A    A  R    R  N    N  II  N    N   GGGG   !!!           |
|                                                                             |
|      You have enabled k-point parallelism (KPAR>1).                         |
|      This developmental code was originally  written by Paul Kent at ORNL,  |
|      and carefully double checked in Vienna.                                |
|      GW as well as linear response parallelism added by Martijn Marsman     |
|      and Georg Kresse.                                                      |
|      Carefully verify results versus KPAR=1.                                |
|      Report problems to Paul Kent and Vienna.                               |
|                                                                             |
 ----------------------------------------------------------------------------- 

 POTCAR:    PAW_PBE Fe 06Sep2000                  
   VRHFIN =Fe:  d7 s1                                                           
   LEXCH  = PE                                                                  
   EATOM  =   594.3153 eV,   43.6809 Ry                                         
                                                                                
   TITEL  = PAW_PBE Fe 06Sep2000                                                
   LULTRA =        F    use ultrasoft PP ?                                      
   IUNSCR =        1    unscreen: 0-lin 1-nonlin 2-no                           
   RPACOR =    2.000    partial core radius                                     
   POMASS =   55.847; ZVAL   =    8.000    mass and valenz                      
   RCORE  =    2.300    outmost cutoff radius                                   
   RWIGS  =    2.460; RWIGS  =    1.302    wigner-seitz radius (au A)           
   ENMAX  =  267.882; ENMIN  =  200.911 eV                                      
   RCLOC  =    1.701    cutoff for local pot                                    
   LCOR   =        T    correct aug charges                                     
   LPAW   =        T    paw PP                                                  
   EAUG   =  511.368                                                            
   DEXC   =    0.000                                                            
   RMAX   =    2.356    core radius for proj-oper                               
   RAUG   =    1.300    factor for augmentation sphere                          
   RDEP   =    2.442    radius for radial grids                                 
   RDEPT  =    1.890    core radius for aug-charge                              
                                                                                
   Atomic configuration                                                         
    9 entries                                                                   
     n  l   j            E        occ.                                          
     1  0  0.50     -6993.8440   2.0000                                         
     2  0  0.50      -814.6047   2.0000                                         
     2  1  1.50      -693.3689   6.0000                                         
     3  0  0.50       -89.4732   2.0000                                         
     3  1  1.50       -55.6373   6.0000                                         
     3  2  2.50        -3.8151   7.0000                                         
     4  0  0.50        -4.2551   1.0000                                         
     4  1  1.50        -3.4015   0.0000                                         
     4  3  2.50        -1.3606   0.0000                                         
   Description                                                                  
     l       E           TYP  RCUT    TYP  RCUT                                 
     2     -3.8151135     23  2.300                                             
     2     -5.1756961     23  2.300                                             
     0     -4.2550963     23  2.300                                             
     0      7.2035603     23  2.300                                             
     1     -2.7211652     23  2.300                                             
     1     18.4316424     23  2.300                                             
  local pseudopotential read in
  partial core-charges read in
  partial kinetic energy density read in
  atomic valenz-charges read in
  non local Contribution for L=           2  read in
    real space projection operators read in
  non local Contribution for L=           2  read in
    real space projection operators read in
  non local Contribution for L=           0  read in
    real space projection operators read in
  non local Contribution for L=           0  read in
    real space projection operators read in
  non local Contribution for L=           1  read in
    real space projection operators read in
  non local Contribution for L=           1  read in
    real space projection operators read in
    PAW grid and wavefunctions read in
 
   number of l-projection  operators is LMAX  =           6
   number of lm-projection operators is LMMAX =          18
 
 POTCAR:    PAW_PBE I 08Apr2002                   
   VRHFIN =I : s2p5                                                             
   LEXCH  = PE                                                                  
   EATOM  =   315.8678 eV,   23.2156 Ry                                         
                                                                                
   TITEL  = PAW_PBE I 08Apr2002                                                 
   LULTRA =        F    use ultrasoft PP ?                                      
   IUNSCR =        1    unscreen: 0-lin 1-nonlin 2-no                           
   RPACOR =    2.200    partial core radius                                     
   POMASS =  126.904; ZVAL   =    7.000    mass and valenz                      
   RCORE  =    2.300    outmost cutoff radius                                   
   RWIGS  =    2.810; RWIGS  =    1.487    wigner-seitz radius (au A)           
   ENMAX  =  175.647; ENMIN  =  131.735 eV                                      
   ICORE  =        3    local potential                                         
   LCOR   =        T    correct aug charges                                     
   LPAW   =        T    paw PP                                                  
   EAUG   =  370.139                                                            
   DEXC   =    0.000                                                            
   RMAX   =    2.359    core radius for proj-oper                               
   RAUG   =    1.300    factor for augmentation sphere                          
   RDEP   =    2.392    radius for radial grids                                 
   RDEPT  =    2.170    core radius for aug-charge                              
                                                                                
   Atomic configuration                                                         
   13 entries                                                                   
     n  l   j            E        occ.                                          
     1  0  0.50    -32976.3739   2.0000                                         
     2  0  0.50     -5094.5933   2.0000                                         
     2  1  1.50     -4572.0131   6.0000                                         
     3  0  0.50     -1028.2813   2.0000                                         
     3  1  1.50      -859.0250   6.0000                                         
     3  2  2.50      -605.7620  10.0000                                         
     4  0  0.50      -180.5540   2.0000                                         
     4  1  1.50      -127.5306   6.0000                                         
     4  2  2.50       -50.2720  10.0000                                         
     5  0  0.50       -17.4058   2.0000                                         
     5  1  0.50        -7.0851   5.0000                                         
     5  2  1.50        -7.0750   0.0000                                         
     4  3  2.50        -7.0750   0.0000                                         
   Description                                                                  
     l       E           TYP  RCUT    TYP  RCUT                                 
     0    -17.4058016     23  2.300                                             
     0    -18.7663842     23  2.300                                             
     1     -7.0850686     23  2.300                                             
     1     -4.2150896     23  2.300                                             
     2     -7.0750295     23  2.300                                             
     3     -1.3605826     23  2.300                                             
  local pseudopotential read in
  partial core-charges read in
  partial kinetic energy density read in
  atomic valenz-charges read in
  non local Contribution for L=           0  read in
    real space projection operators read in
  non local Contribution for L=           0  read in
    real space projection operators read in
  non local Contribution for L=           1  read in
    real space projection operators read in
  non local Contribution for L=           1  read in
    real space projection operators read in
  non local Contribution for L=           2  read in
    real space projection operators read in
    PAW grid and wavefunctions read in
 
   number of l-projection  operators is LMAX  =           5
   number of lm-projection operators is LMMAX =          13
 
  PAW_PBE Fe 06Sep2000                  :
 energy of atom  1       EATOM= -594.3153
 kinetic energy error for atom=    0.0026 (will be added to EATOM!!)
  PAW_PBE I 08Apr2002                   :
 energy of atom  2       EATOM= -315.8678
 kinetic energy error for atom=    0.0009 (will be added to EATOM!!)
 
 
 POSCAR:  Fe  I                                  
  positions in cartesian coordinates
  No initial velocities read in
 exchange correlation table for  LEXCH =        8
   RHO(1)=    0.500       N(1)  =     2000
   RHO(2)=  100.500       N(2)  =     4000
 


--------------------------------------------------------------------------------------------------------


 ion  position               nearest neighbor table
   1  0.667  0.333  0.500-   7 2.81   6 2.81   8 2.81   3 2.81   5 2.81   4 2.81
   2  0.333  0.667  0.500-   5 2.81   3 2.81   4 2.81   6 2.81   8 2.81   7 2.81
   3  0.428  0.000  0.417-   2 2.81   1 2.81
   4  0.572  0.572  0.417-   2 2.81   1 2.81
   5  1.000  0.428  0.417-   2 2.81   1 2.81
   6  0.428  0.000  0.583-   1 2.81   2 2.81
   7  0.572  0.572  0.583-   1 2.81   2 2.81
   8  1.000  0.428  0.583-   1 2.81   2 2.81
 
  LATTYP: Found a hexagonal cell.
 ALAT       =     7.2841981229
 C/A-ratio  =     2.9610806465
  
  Lattice vectors:
  
 A1 = (   7.2841981229,   0.0000000000,   0.0000000000)
 A2 = (  -3.6420990614,   6.3083006206,   0.0000000000)
 A3 = (   0.0000000000,   0.0000000000,  21.5690980866)


Analysis of symmetry for initial positions (statically):
=====================================================================
 Subroutine PRICEL returns:
 Original cell was already a primitive cell.
 

 Routine SETGRP: Setting up the symmetry group for a 
 hexagonal supercell.


 Subroutine GETGRP returns: Found  3 space group operations
 (whereof  3 operations were pure point group operations)
 out of a pool of 24 trial point group operations.


The static configuration has the point symmetry C_3 .


Analysis of symmetry for dynamics (positions and initial velocities):
=====================================================================
 Subroutine PRICEL returns:
 Original cell was already a primitive cell.
 

 Routine SETGRP: Setting up the symmetry group for a 
 hexagonal supercell.


 Subroutine GETGRP returns: Found  3 space group operations
 (whereof  3 operations were pure point group operations)
 out of a pool of 24 trial point group operations.


The dynamic configuration has the point symmetry C_3 .


 Subroutine INISYM returns: Found  3 space group operations
 (whereof  3 operations are pure point group operations),
 and found     1 'primitive' translations

 
 
 KPOINTS: KPT-Resolved Value to Generate K-Mesh: 0

Automatic generation of k-mesh.
Space group operators:
 irot       det(A)        alpha          n_x          n_y          n_z        tau_x        tau_y        tau_z
    1     1.000000     0.000000     1.000000     0.000000     0.000000     0.000000     0.000000     0.000000
    2     1.000000   120.000000     0.000000     0.000000    -1.000000     0.000000     0.000000     0.000000
    3     1.000000   120.000000     0.000000     0.000000     1.000000     0.000000     0.000000     0.000000
 
 Subroutine IBZKPT returns following result:
 ===========================================
 
 Found      2 irreducible k-points:
 
 Following reciprocal coordinates:
            Coordinates               Weight
  0.000000  0.000000  0.000000      1.000000
  0.500000  0.000000  0.000000      3.000000
 
 Following cartesian coordinates:
            Coordinates               Weight
  0.000000  0.000000  0.000000      1.000000
  0.068642  0.039630  0.000000      3.000000
 
 
 Subroutine IBZKPT_HF returns following result:
 ==============================================
 
 Found      4 k-points in 1st BZ
 the following      4 k-points will be used (e.g. in the exchange kernel)
 Following reciprocal coordinates:   # in IRBZ
  0.000000  0.000000  0.000000    0.25000000   1 t-inv F
  0.500000  0.000000  0.000000    0.25000000   2 t-inv F
 -0.500000  0.500000  0.000000    0.25000000   2 t-inv F
  0.000000 -0.500000  0.000000    0.25000000   2 t-inv F


--------------------------------------------------------------------------------------------------------




 Dimension of arrays:
   k-points           NKPTS =      2   k-points in BZ     NKDIM =      2   number of bands    NBANDS=    288
   number of dos      NEDOS =    301   number of ions     NIONS =      8
   non local maximal  LDIM  =      6   non local SUM 2l+1 LMDIM =     18
   total plane-waves  NPLWV = 211680
   max r-space proj   IRMAX =      1   max aug-charges    IRDMAX=  12553
   dimension x,y,z NGX =    42 NGY =   42 NGZ =  120
   dimension x,y,z NGXF=    84 NGYF=   84 NGZF=  240
   support grid    NGXF=    84 NGYF=   84 NGZF=  240
   ions per type =               2   6
   NGX,Y,Z   is equivalent  to a cutoff of   9.59,  9.59,  9.25 a.u.
   NGXF,Y,Z  is equivalent  to a cutoff of  19.17, 19.17, 18.50 a.u.

 SYSTEM =  Si                                      
 POSCAR =   Fe  I                                  

 Startparameter for this run:
   NWRITE =      2    write-flag & timer
   PREC   = normal    normal or accurate (medium, high low for compatibility)
   ISTART =      1    job   : 0-new  1-cont  2-samecut
   ICHARG =      0    charge: 1-file 2-atom 10-const
   ISPIN  =      1    spin polarized calculation?
   LNONCOLLINEAR =      F non collinear calculations
   LSORBIT =      F    spin-orbit coupling
   INIWAV =      1    electr: 0-lowe 1-rand  2-diag
   LASPH  =      F    aspherical Exc in radial PAW
   METAGGA=      F    non-selfconsistent MetaGGA calc.

 Electronic Relaxation 1
   ENCUT  =  520.0 eV  38.22 Ry    6.18 a.u.  13.54 13.54 40.10*2*pi/ulx,y,z
   ENINI  =  520.0     initial cutoff
   ENAUG  =  511.4 eV  augmentation charge cutoff
   NELM   =      1;   NELMIN=  2; NELMDL=  0     # of ELM steps 
   EDIFF  = 0.1E-03   stopping-criterion for ELM
   LREAL  =      F    real-space projection
   NLSPLINE    = F    spline interpolate recip. space projectors
   LCOMPAT=      F    compatible to vasp.4.4
   GGA_COMPAT  = T    GGA compatible to vasp.4.4-vasp.4.6
   LMAXPAW     = -100 max onsite density
   LMAXMIX     =    2 max onsite mixed and CHGCAR
   VOSKOWN=      0    Vosko Wilk Nusair interpolation
   ROPT   =    0.00000   0.00000
 Ionic relaxation
   EDIFFG = 0.1E-02   stopping-criterion for IOM
   NSW    =      0    number of steps for IOM
   NBLOCK =      1;   KBLOCK =      1    inner block; outer block 
   IBRION =     -1    ionic relax: 0-MD 1-quasi-New 2-CG
   NFREE  =      0    steps in history (QN), initial steepest desc. (CG)
   ISIF   =      2    stress and relaxation
   IWAVPR =     10    prediction:  0-non 1-charg 2-wave 3-comb
   ISYM   =      2    0-nonsym 1-usesym 2-fastsym
   LCORR  =      T    Harris-Foulkes like correction to forces

   POTIM  = 0.5000    time-step for ionic-motion
   TEIN   =    0.0    initial temperature
   TEBEG  =    0.0;   TEEND  =   0.0 temperature during run
   SMASS  =  -3.00    Nose mass-parameter (am)
   estimated Nose-frequenzy (Omega)   =  0.10E-29 period in steps =****** mass=  -0.121E-26a.u.
   SCALEE = 1.0000    scale energy and forces
   NPACO  =    256;   APACO  = 16.0  distance and # of slots for P.C.
   PSTRESS=    0.0 pullay stress

  Mass of Ions in am
   POMASS =  55.85126.90
  Ionic Valenz
   ZVAL   =   8.00  7.00
  Atomic Wigner-Seitz radii
   RWIGS  =  -1.00 -1.00
  virtual crystal weights 
   VCA    =   1.00  1.00
   NELECT =      58.0000    total number of electrons
   NUPDOWN=      -1.0000    fix difference up-down

 DOS related values:
   EMIN   =  10.00;   EMAX   =-10.00  energy-range for DOS
   EFERMI =   0.00
   ISMEAR =     0;   SIGMA  =   0.01  broadening in eV -4-tet -1-fermi 0-gaus

 Electronic relaxation 2 (details)
   IALGO  =     90    algorithm
   LDIAG  =      T    sub-space diagonalisation (order eigenvalues)
   LSUBROT=      F    optimize rotation matrix (better conditioning)
   TURBO    =      0    0=normal 1=particle mesh
   IRESTART =      0    0=no restart 2=restart with 2 vectors
   NREBOOT  =      0    no. of reboots
   NMIN     =      0    reboot dimension
   EREF     =   0.00    reference energy to select bands
   IMIX   =      4    mixing-type and parameters
     AMIX     =   0.40;   BMIX     =  1.00
     AMIX_MAG =   1.60;   BMIX_MAG =  1.00
     AMIN     =   0.10
     WC   =   100.;   INIMIX=   1;  MIXPRE=   1;  MAXMIX= -45

 Intra band minimization:
   WEIMIN = 0.0000     energy-eigenvalue tresh-hold
   EBREAK =  0.87E-07  absolut break condition
   DEPER  =   0.30     relativ break condition  

   TIME   =   0.40     timestep for ELM

  volume/ion in A,a.u.               =     123.89       836.05
  Fermi-wavevector in a.u.,A,eV,Ry     =   0.635588  1.201087  5.496368  0.403972
  Thomas-Fermi vector in A             =   1.699971
 
 Write flags
   LWAVE        =      T    write WAVECAR
   LDOWNSAMPLE  =      F    k-point downsampling of WAVECAR
   LCHARG       =      T    write CHGCAR
   LVTOT        =      F    write LOCPOT, total local potential
   LVHAR        =      F    write LOCPOT, Hartree potential only
   LELF         =      F    write electronic localiz. function (ELF)
   LORBIT       =      0    0 simple, 1 ext, 2 COOP (PROOUT), +10 PAW based schemes


 Dipole corrections
   LMONO  =      F    monopole corrections only (constant potential shift)
   LDIPOL =      F    correct potential (dipole corrections)
   IDIPOL =      0    1-x, 2-y, 3-z, 4-all directions 
   EPSILON=  1.0000000 bulk dielectric constant

 Exchange correlation treatment:
   GGA     =    --    GGA type
   LEXCH   =     8    internal setting for exchange type
   VOSKOWN=      0    Vosko Wilk Nusair interpolation
   LHFCALC =     F    Hartree Fock is set to
   LHFONE  =     F    Hartree Fock one center treatment
   AEXX    =    0.0000 exact exchange contribution

 Linear response parameters
   LEPSILON=     F    determine dielectric tensor
   LRPA    =     F    only Hartree local field effects (RPA)
   LNABLA  =     F    use nabla operator in PAW spheres
   LVEL    =     F    velocity operator in full k-point grid
   LINTERFAST=   F  fast interpolation
   KINTER  =     0    interpolate to denser k-point grid
   CSHIFT  =0.1000    complex shift for real part using Kramers Kronig
   OMEGAMAX=  40.0    maximum frequency
   DEG_THRESHOLD= 0.2000000E-02 threshold for treating states as degnerate
   RTIME   =   -0.100 relaxation time in fs
  (WPLASMAI=    0.000 imaginary part of plasma frequency in eV, 0.658/RTIME)
   DFIELD  = 0.0000000 0.0000000 0.0000000 field for delta impulse in time
 
 Orbital magnetization related:
   ORBITALMAG=     F  switch on orbital magnetization
   LCHIMAG   =     F  perturbation theory with respect to B field
   DQ        =  0.001000  dq finite difference perturbation B field
   LLRAUG    =     F  two centre corrections for induced B field

 PEAD related settings:
   LPEAD      =     T    switch on PEAD
   IPEAD      =     4    finite difference order for dpsi/dk
   LCALCPOL   =     F    calculate macroscopic polarization
   LCALCEPS   =     F    calculate dielectric tensor
   EFIELD_PEAD=    0.0000    0.0000    0.0000
   SKIP_EDOTP =     F
   LRPA       =     F
   SKIP_SCF   =     F


--------------------------------------------------------------------------------------------------------


 Static calculation
 charge density and potential will be updated during run
 non-spin polarized calculation
 Exact diagonalization
 preconditioned conjugated gradient (Jacobi prec)
    charged. constant during bandupdate  
    band-by band algorithm
 perform sub-space diagonalisation
    after iterative eigenvector-optimisation
 modified Broyden-mixing scheme, WC =      100.0
 initial mixing is a Kerker type mixing with AMIX =  0.4000 and BMIX =      1.0000
 Hartree-type preconditioning will be used
 using additional bands          259
 reciprocal scheme for non local part
 use partial core corrections
 calculate Harris-corrections to forces 
   (improved forces if not selfconsistent)
 use gradient corrections 
 use of overlap-Matrix (Vanderbilt PP)
 Gauss-broadening in eV      SIGMA  =   0.01


--------------------------------------------------------------------------------------------------------


  energy-cutoff  :      520.00
  volume of cell :      991.12
      direct lattice vectors                 reciprocal lattice vectors
     7.284198123  0.000000000  0.000000000     0.137283471  0.079260649  0.000000000
    -3.642099061  6.308300621  0.000000000     0.000000000  0.158521298  0.000000000
     0.000000000  0.000000000 21.569098087     0.000000000  0.000000000  0.046362625

  length of vectors
     7.284198123  7.284198123 21.569098087     0.158521298  0.158521298  0.046362625


 
 old parameters found on file WAVECAR:
  energy-cutoff  :      334.85
  volume of cell :      991.12
      direct lattice vectors                 reciprocal lattice vectors
     7.284198123  0.000000000  0.000000000     0.137283471  0.079260649  0.000000000
    -3.642099061  6.308300621  0.000000000     0.000000000  0.158521298  0.000000000
     0.000000000  0.000000000 21.569098087     0.000000000  0.000000000  0.046362625

  length of vectors

 
 k-points in units of 2pi/SCALE and weight: KPT-Resolved Value to Generate K-Mesh: 0
   0.00000000  0.00000000  0.00000000       0.250
   0.06864174  0.03963032  0.00000000       0.750
 
 k-points in reciprocal lattice and weights: KPT-Resolved Value to Generate K-Mesh: 0
   0.00000000  0.00000000  0.00000000       0.250
   0.50000000  0.00000000  0.00000000       0.750
 
 position of ions in fractional coordinates (direct lattice) 
   0.66666667  0.33333333  0.50002607
   0.33333333  0.66666667  0.49994294
   0.42789610  0.00005456  0.41726362
   0.57215846  0.57210390  0.41726362
   0.99994544  0.42784154  0.41726362
   0.42790301  0.00015168  0.58273638
   0.57224867  0.57209699  0.58273638
   0.99984832  0.42775133  0.58273638
 
 position of ions in cartesian coordinates  (Angst):
   3.64209906  2.10276687 10.78511139
   0.00000000  4.20553375 10.78331839
   3.11668126  0.00034417  9.00000000
   2.08405649  3.60900339  9.00000000
   5.72555944  2.69895306  9.00000000
   3.11637787  0.00095686 12.56909809
   2.08473879  3.60895979 12.56909809
   5.72518053  2.69838397 12.56909809
 


--------------------------------------------------------------------------------------------------------


 k-point  1 :   0.0000 0.0000 0.0000  plane waves:   26775
 k-point  2 :   0.5000 0.0000 0.0000  plane waves:   26630

 maximum and minimum number of plane-waves per node :     26775    26630

 maximum number of plane-waves:     26775
 maximum index in each direction: 
   IXMAX=   13   IYMAX=   13   IZMAX=   40
   IXMIN=  -14   IYMIN=  -13   IZMIN=  -40


 serial   3D FFT for wavefunctions
 parallel 3D FFT for charge:
    minimum data exchange during FFTs selected (reduces bandwidth)


 total amount of memory used by VASP MPI-rank0    70584. kBytes
=======================================================================

   base      :      30000. kBytes
   nonl-proj :      18855. kBytes
   fftplans  :       2810. kBytes
   grid      :      11902. kBytes
   one-center:        124. kBytes
   wavefun   :       6893. kBytes
 
     INWAV:  cpu time    0.7117: real time    0.7395
 Broyden mixing: mesh for mixing (old mesh)
   NGX = 27   NGY = 27   NGZ = 81
  (NGX  = 84   NGY  = 84   NGZ  =240)
  gives a total of  59049 points

 charge density for first step will be calculated from the start-wavefunctions


--------------------------------------------------------------------------------------------------------


 Maximum index for augmentation-charges          809 (set IRDMAX)


--------------------------------------------------------------------------------------------------------


 initial charge from wavefunction
 First call to EWALD:  gamma=   0.178
 Maximum number of real-space cells 4x 4x 2
 Maximum number of reciprocal cells 2x 2x 5

    FEWALD:  cpu time    0.0027: real time    0.0032


--------------------------------------- Iteration      1(   1)  ---------------------------------------


    POTLOK:  cpu time    0.0966: real time    0.1507
    SETDIJ:  cpu time    0.0166: real time    0.0435

 total amount of memory used by VASP MPI-rank0   711685. kBytes
=======================================================================

   base      :      30000. kBytes
   nonl-proj :      18855. kBytes
   fftplans  :       2810. kBytes
   grid      :      11902. kBytes
   one-center:        124. kBytes
   wavefun   :     647994. kBytes
 
    EDDIAG:  cpu time 1924.0884: real time 1924.3223
       DOS:  cpu time    0.0162: real time    0.0519
    --------------------------------------------
      LOOP:  cpu time 1924.2178: real time 1924.5684

 eigenvalue-minimisations  :     0
 total energy-change (2. order) :-0.1289712E+04  ( 0.0000000E+00)
 number of electron      58.0000051 magnetization 
 augmentation part       -1.5881373 magnetization 

 Free energy of the ion-electron system (eV)
  ---------------------------------------------------
  alpha Z        PSCENC =        16.78717852
  Ewald energy   TEWEN  =      4433.43074864
  -Hartree energ DENC   =     -7425.08779891
  -exchange      EXHF   =         0.00000000
  -V(xc)+E(xc)   XCENC  =       -68.37846480
  PAW double counting   =      4053.09122919    -3932.13394021
  entropy T*S    EENTRO =        -0.00385656
  eigenvalues    EBANDS =     -1451.24383022
  atomic energy  EATOM  =      3083.82705073
  Solvation  Ediel_sol  =         0.00000000
  ---------------------------------------------------
  free energy    TOTEN  =     -1289.71168361 eV

  energy without entropy =    -1289.70782705  energy(sigma->0) =    -1289.70975533


--------------------------------------------------------------------------------------------------------




 average (electrostatic) potential at core
  the test charge radii are     1.0103  1.1875
  (the norm of the test charge is              1.0000)
       1  19.4044       2-126.6449       3 -98.6802       4 -98.6802       5 -98.6802
       6 -98.6419       7 -98.6419       8 -98.6419
 
 
 
 E-fermi :  -5.2416     XC(G=0):  -2.9187     alpha+bet : -2.4588


 k-point     1 :       0.0000    0.0000    0.0000
  band No.  band energies     occupation 
      1     -76.9217      2.00000
      2     -76.9217      2.00000
      3     -76.8857      2.00000
      4     -76.8857      2.00000
      5     -76.8728      2.00000
      6     -37.2079      2.00000
      7     -26.0968      2.00000
      8     -25.1159      2.00000
      9     -25.1159      2.00000
     10     -19.8186      2.00000
     11     -17.3965      2.00000
     12     -17.3965      2.00000
     13     -15.9143      2.00000
     14     -15.9143      2.00000
     15     -15.7607      2.00000
     16     -14.5857      2.00000
     17     -10.6585      2.00000
     18     -10.6585      2.00000
     19     -10.6521      2.00000
     20     -10.6291      2.00000
     21      -9.8348      2.00000
     22      -9.8348      2.00000
     23      -9.7172      2.00000
     24      -9.7172      2.00000
     25      -6.1344      2.00000
     26      -6.1344      2.00000
     27      -5.7484      2.00000
     28      -5.7007      2.00000
     29      -5.4123      2.00000
     30      -5.4123      2.00000
     31      -4.6863      0.00000
     32      -4.4637      0.00000
     33      -3.8801      0.00000
     34      -3.8753      0.00000
     35      -3.8752      0.00000
     36      -3.3204      0.00000
     37      -2.6036      0.00000
     38      -2.6036      0.00000
     39      -2.2939      0.00000
     40      -2.2939      0.00000
     41      -1.6509      0.00000
     42      -1.6509      0.00000
     43      -0.0469      0.00000
     44       1.2721      0.00000
     45       1.7786      0.00000
     46       2.1000      0.00000
     47       2.1000      0.00000
     48       2.1615      0.00000
     49       2.4453      0.00000
     50       2.6472      0.00000
     51       2.7263      0.00000
     52       3.0394      0.00000
     53       3.0394      0.00000
     54       3.4737      0.00000
     55       3.8423      0.00000
     56       4.0152      0.00000
     57       4.0152      0.00000
     58       4.2221      0.00000
     59       4.6925      0.00000
     60       4.8167      0.00000
     61       4.8167      0.00000
     62       4.8854      0.00000
     63       4.8854      0.00000
     64       5.0408      0.00000
     65       5.2740      0.00000
     66       5.5984      0.00000
     67       5.5984      0.00000
     68       5.6705      0.00000
     69       5.7251      0.00000
     70       5.7251      0.00000
     71       5.8107      0.00000
     72       6.1341      0.00000
     73       6.1342      0.00000
     74       6.2168      0.00000
     75       6.3751      0.00000
     76       6.4380      0.00000
     77       6.4380      0.00000
     78       6.4753      0.00000
     79       6.4945      0.00000
     80       6.4945      0.00000
     81       6.7745      0.00000
     82       6.7746      0.00000
     83       6.7780      0.00000
     84       6.9222      0.00000
     85       6.9237      0.00000
     86       6.9238      0.00000
     87       7.0609      0.00000
     88       7.4209      0.00000
     89       7.4209      0.00000
     90       7.4215      0.00000
     91       7.4450      0.00000
     92       7.4450      0.00000
     93       7.9227      0.00000
     94       8.1032      0.00000
     95       8.1032      0.00000
     96       8.1149      0.00000
     97       8.3670      0.00000
     98       8.3670      0.00000
     99       8.5789      0.00000
    100       8.6191      0.00000
    101       8.7009      0.00000
    102       8.7703      0.00000
    103       8.7704      0.00000
    104       8.9976      0.00000
    105       9.2172      0.00000
    106       9.2172      0.00000
    107       9.3946      0.00000
    108       9.3947      0.00000
    109       9.4883      0.00000
    110       9.4884      0.00000
    111       9.5305      0.00000
    112       9.7436      0.00000
    113       9.7837      0.00000
    114       9.8746      0.00000
    115       9.8746      0.00000
    116      10.0617      0.00000
    117      10.0617      0.00000
    118      10.4485      0.00000
    119      10.6467      0.00000
    120      10.7922      0.00000
    121      10.7922      0.00000
    122      10.9660      0.00000
    123      11.4841      0.00000
    124      11.4842      0.00000
    125      11.5063      0.00000
    126      11.5476      0.00000
    127      11.5635      0.00000
    128      11.5635      0.00000
    129      11.6396      0.00000
    130      11.7141      0.00000
    131      11.7142      0.00000
    132      11.8081      0.00000
    133      11.9754      0.00000
    134      11.9754      0.00000
    135      12.0630      0.00000
    136      12.3478      0.00000
    137      12.3478      0.00000
    138      12.4628      0.00000
    139      12.4628      0.00000
    140      12.8357      0.00000
    141      12.9830      0.00000
    142      13.0950      0.00000
    143      13.0951      0.00000
    144      13.1780      0.00000
    145      13.2109      0.00000
    146      13.3151      0.00000
    147      13.3151      0.00000
    148      13.4929      0.00000
    149      13.5062      0.00000
    150      13.5188      0.00000
    151      13.5188      0.00000
    152      13.8433      0.00000
    153      13.8523      0.00000
    154      13.8523      0.00000
    155      13.8981      0.00000
    156      14.0131      0.00000
    157      14.0131      0.00000
    158      14.0675      0.00000
    159      14.0675      0.00000
    160      14.1800      0.00000
    161      14.2077      0.00000
    162      14.4275      0.00000
    163      14.4275      0.00000
    164      14.4657      0.00000
    165      14.4657      0.00000
    166      14.5209      0.00000
    167      14.5434      0.00000
    168      14.5848      0.00000
    169      14.5848      0.00000
    170      14.7852      0.00000
    171      14.7852      0.00000
    172      14.8521      0.00000
    173      14.8522      0.00000
    174      15.0996      0.00000
    175      15.1586      0.00000
    176      15.2448      0.00000
    177      15.2553      0.00000
    178      15.2553      0.00000
    179      15.3314      0.00000
    180      15.3314      0.00000
    181      15.5290      0.00000
    182      15.5714      0.00000
    183      15.5715      0.00000
    184      15.5967      0.00000
    185      15.6566      0.00000
    186      15.8469      0.00000
    187      15.8470      0.00000
    188      15.9300      0.00000
    189      16.0320      0.00000
    190      16.0321      0.00000
    191      16.2393      0.00000
    192      16.2623      0.00000
    193      16.2674      0.00000
    194      16.2674      0.00000
    195      16.3525      0.00000
    196      16.5331      0.00000
    197      16.5331      0.00000
    198      16.6287      0.00000
    199      16.6367      0.00000
    200      16.6368      0.00000
    201      16.7554      0.00000
    202      16.8307      0.00000
    203      16.8308      0.00000
    204      16.9250      0.00000
    205      17.0431      0.00000
    206      17.0431      0.00000
    207      17.3533      0.00000
    208      17.3533      0.00000
    209      17.3902      0.00000
    210      17.4493      0.00000
    211      17.4494      0.00000
    212      17.4857      0.00000
    213      17.5258      0.00000
    214      17.6027      0.00000
    215      17.6517      0.00000
    216      17.6517      0.00000
    217      17.6801      0.00000
    218      17.6803      0.00000
    219      17.8575      0.00000
    220      17.8576      0.00000
    221      17.8668      0.00000
    222      17.9141      0.00000
    223      18.0478      0.00000
    224      18.0478      0.00000
    225      18.1777      0.00000
    226      18.1778      0.00000
    227      18.2281      0.00000
    228      18.2897      0.00000
    229      18.2898      0.00000
    230      18.4163      0.00000
    231      18.4603      0.00000
    232      18.5178      0.00000
    233      18.5179      0.00000
    234      18.6406      0.00000
    235      18.6604      0.00000
    236      18.6605      0.00000
    237      18.7542      0.00000
    238      18.8594      0.00000
    239      18.8594      0.00000
    240      18.9113      0.00000
    241      18.9113      0.00000
    242      18.9331      0.00000
    243      19.0141      0.00000
    244      19.0751      0.00000
    245      19.1027      0.00000
    246      19.1027      0.00000
    247      19.2217      0.00000
    248      19.2217      0.00000
    249      19.2476      0.00000
    250      19.4810      0.00000
    251      19.4811      0.00000
    252      19.5258      0.00000
    253      19.6427      0.00000
    254      19.6428      0.00000
    255      19.6459      0.00000
    256      19.6459      0.00000
    257      19.7202      0.00000
    258      19.7202      0.00000
    259      19.7816      0.00000
    260      19.8887      0.00000
    261      20.0321      0.00000
    262      20.0322      0.00000
    263      20.0608      0.00000
    264      20.1445      0.00000
    265      20.1676      0.00000
    266      20.3585      0.00000
    267      20.3585      0.00000
    268      20.5250      0.00000
    269      20.5250      0.00000
    270      20.6155      0.00000
    271      20.6750      0.00000
    272      20.7104      0.00000
    273      20.8394      0.00000
    274      20.8394      0.00000
    275      21.0536      0.00000
    276      21.0536      0.00000
    277      21.1238      0.00000
    278      21.2804      0.00000
    279      21.2805      0.00000
    280      21.3511      0.00000
    281      21.5943      0.00000
    282      21.6072      0.00000
    283      21.6072      0.00000
    284      21.7155      0.00000
    285      21.7155      0.00000
    286      21.7717      0.00000
    287      21.8536      0.00000
    288      21.8536      0.00000

 k-point     2 :       0.5000    0.0000    0.0000
  band No.  band energies     occupation 
      1     -76.9217      2.00000
      2     -76.9217      2.00000
      3     -76.8857      2.00000
      4     -76.8856      2.00000
      5     -76.8727      2.00000
      6     -37.2079      2.00000
      7     -26.0965      2.00000
      8     -25.1169      2.00000
      9     -25.1162      2.00000
     10     -19.8096      2.00000
     11     -17.4297      2.00000
     12     -17.4005      2.00000
     13     -15.9655      2.00000
     14     -15.9153      2.00000
     15     -15.7047      2.00000
     16     -14.5268      2.00000
     17     -10.6725      2.00000
     18     -10.6422      2.00000
     19     -10.5973      2.00000
     20     -10.5781      2.00000
     21      -9.9224      2.00000
     22      -9.8536      2.00000
     23      -9.8093      2.00000
     24      -9.6673      2.00000
     25      -6.3422      2.00000
     26      -6.1739      2.00000
     27      -5.7151      2.00000
     28      -5.5635      2.00000
     29      -5.2447      1.33333
     30      -5.0844      0.00000
     31      -4.8901      0.00000
     32      -4.3920      0.00000
     33      -4.2391      0.00000
     34      -3.9927      0.00000
     35      -3.6980      0.00000
     36      -2.9999      0.00000
     37      -2.9952      0.00000
     38      -2.7343      0.00000
     39      -2.6660      0.00000
     40      -2.4149      0.00000
     41      -1.8193      0.00000
     42      -1.2147      0.00000
     43       0.4907      0.00000
     44       1.5237      0.00000
     45       1.8365      0.00000
     46       1.9698      0.00000
     47       2.2275      0.00000
     48       2.4497      0.00000
     49       2.6312      0.00000
     50       2.7187      0.00000
     51       2.9431      0.00000
     52       3.0795      0.00000
     53       3.3370      0.00000
     54       3.4505      0.00000
     55       3.5309      0.00000
     56       3.6703      0.00000
     57       3.8349      0.00000
     58       3.8829      0.00000
     59       4.2280      0.00000
     60       4.3187      0.00000
     61       4.3964      0.00000
     62       4.5534      0.00000
     63       4.6069      0.00000
     64       4.7163      0.00000
     65       4.9634      0.00000
     66       5.1422      0.00000
     67       5.1820      0.00000
     68       5.4234      0.00000
     69       5.5201      0.00000
     70       5.6115      0.00000
     71       5.8541      0.00000
     72       5.8599      0.00000
     73       5.9229      0.00000
     74       6.1059      0.00000
     75       6.1921      0.00000
     76       6.2386      0.00000
     77       6.5045      0.00000
     78       6.5274      0.00000
     79       6.6906      0.00000
     80       6.7688      0.00000
     81       6.8793      0.00000
     82       7.1773      0.00000
     83       7.2217      0.00000
     84       7.4336      0.00000
     85       7.5346      0.00000
     86       7.5861      0.00000
     87       7.7162      0.00000
     88       7.8293      0.00000
     89       7.9233      0.00000
     90       8.0445      0.00000
     91       8.2055      0.00000
     92       8.2993      0.00000
     93       8.4063      0.00000
     94       8.5489      0.00000
     95       8.6179      0.00000
     96       8.6798      0.00000
     97       8.7961      0.00000
     98       8.8636      0.00000
     99       8.9386      0.00000
    100       9.0150      0.00000
    101       9.0497      0.00000
    102       9.1343      0.00000
    103       9.2350      0.00000
    104       9.2816      0.00000
    105       9.3720      0.00000
    106       9.3865      0.00000
    107       9.3936      0.00000
    108       9.5161      0.00000
    109       9.6842      0.00000
    110       9.7981      0.00000
    111       9.9387      0.00000
    112       9.9599      0.00000
    113      10.0647      0.00000
    114      10.0828      0.00000
    115      10.2396      0.00000
    116      10.2711      0.00000
    117      10.2945      0.00000
    118      10.4202      0.00000
    119      10.4625      0.00000
    120      10.6020      0.00000
    121      10.6896      0.00000
    122      10.7877      0.00000
    123      10.8642      0.00000
    124      10.9241      0.00000
    125      10.9371      0.00000
    126      10.9496      0.00000
    127      11.1730      0.00000
    128      11.2091      0.00000
    129      11.3158      0.00000
    130      11.3767      0.00000
    131      11.4807      0.00000
    132      11.5297      0.00000
    133      11.5720      0.00000
    134      11.6109      0.00000
    135      11.7262      0.00000
    136      11.8002      0.00000
    137      11.8101      0.00000
    138      11.9108      0.00000
    139      11.9294      0.00000
    140      12.1031      0.00000
    141      12.1123      0.00000
    142      12.1729      0.00000
    143      12.3315      0.00000
    144      12.5445      0.00000
    145      12.6690      0.00000
    146      12.6747      0.00000
    147      12.8127      0.00000
    148      12.8202      0.00000
    149      12.9816      0.00000
    150      13.1244      0.00000
    151      13.1625      0.00000
    152      13.1847      0.00000
    153      13.2668      0.00000
    154      13.4534      0.00000
    155      13.5939      0.00000
    156      13.6425      0.00000
    157      13.7641      0.00000
    158      13.8261      0.00000
    159      13.9240      0.00000
    160      13.9498      0.00000
    161      14.0162      0.00000
    162      14.0695      0.00000
    163      14.1751      0.00000
    164      14.1900      0.00000
    165      14.2711      0.00000
    166      14.3105      0.00000
    167      14.3912      0.00000
    168      14.4486      0.00000
    169      14.4693      0.00000
    170      14.4856      0.00000
    171      14.6336      0.00000
    172      14.7299      0.00000
    173      14.7614      0.00000
    174      14.7886      0.00000
    175      14.8082      0.00000
    176      14.9104      0.00000
    177      14.9578      0.00000
    178      15.0475      0.00000
    179      15.1419      0.00000
    180      15.1960      0.00000
    181      15.2086      0.00000
    182      15.3167      0.00000
    183      15.3344      0.00000
    184      15.3457      0.00000
    185      15.4490      0.00000
    186      15.4553      0.00000
    187      15.5643      0.00000
    188      15.6074      0.00000
    189      15.7744      0.00000
    190      15.8169      0.00000
    191      15.8950      0.00000
    192      15.9169      0.00000
    193      16.0545      0.00000
    194      16.1561      0.00000
    195      16.1863      0.00000
    196      16.2998      0.00000
    197      16.3363      0.00000
    198      16.5275      0.00000
    199      16.6475      0.00000
    200      16.6614      0.00000
    201      16.7421      0.00000
    202      16.7502      0.00000
    203      16.8462      0.00000
    204      16.9056      0.00000
    205      16.9978      0.00000
    206      17.0558      0.00000
    207      17.0888      0.00000
    208      17.2504      0.00000
    209      17.4189      0.00000
    210      17.4214      0.00000
    211      17.4569      0.00000
    212      17.4764      0.00000
    213      17.5446      0.00000
    214      17.5720      0.00000
    215      17.6735      0.00000
    216      17.8388      0.00000
    217      17.9447      0.00000
    218      17.9637      0.00000
    219      18.0355      0.00000
    220      18.0671      0.00000
    221      18.1667      0.00000
    222      18.1835      0.00000
    223      18.3956      0.00000
    224      18.5277      0.00000
    225      18.5463      0.00000
    226      18.6082      0.00000
    227      18.7170      0.00000
    228      18.8973      0.00000
    229      18.9499      0.00000
    230      18.9723      0.00000
    231      19.0708      0.00000
    232      19.0827      0.00000
    233      19.1605      0.00000
    234      19.2596      0.00000
    235      19.3334      0.00000
    236      19.3369      0.00000
    237      19.4752      0.00000
    238      19.6098      0.00000
    239      19.6213      0.00000
    240      19.6788      0.00000
    241      19.7101      0.00000
    242      19.7719      0.00000
    243      19.9134      0.00000
    244      19.9793      0.00000
    245      20.0201      0.00000
    246      20.0454      0.00000
    247      20.0527      0.00000
    248      20.1600      0.00000
    249      20.2135      0.00000
    250      20.2660      0.00000
    251      20.3024      0.00000
    252      20.3782      0.00000
    253      20.4527      0.00000
    254      20.4548      0.00000
    255      20.5089      0.00000
    256      20.5414      0.00000
    257      20.6223      0.00000
    258      20.6559      0.00000
    259      20.7558      0.00000
    260      20.8044      0.00000
    261      20.8350      0.00000
    262      20.8957      0.00000
    263      20.9495      0.00000
    264      21.0045      0.00000
    265      21.0125      0.00000
    266      21.1183      0.00000
    267      21.1248      0.00000
    268      21.2188      0.00000
    269      21.2579      0.00000
    270      21.3886      0.00000
    271      21.4141      0.00000
    272      21.4992      0.00000
    273      21.5314      0.00000
    274      21.5831      0.00000
    275      21.6201      0.00000
    276      21.6361      0.00000
    277      21.7148      0.00000
    278      21.8630      0.00000
    279      21.9167      0.00000
    280      21.9543      0.00000
    281      21.9576      0.00000
    282      22.0869      0.00000
    283      22.1349      0.00000
    284      22.1567      0.00000
    285      22.1572      0.00000
    286      22.2180      0.00000
    287      22.2316      0.00000
    288      22.2397      0.00000


--------------------------------------------------------------------------------------------------------


 soft charge-density along one line, spin component           1
         0         1         2         3         4         5         6         7         8         9
 total charge-density along one line
 
 pseudopotential strength for first ion, spin component:           1
 36.726  -0.000  -0.000  -0.000  -0.000  34.887  -0.000  -0.000
 -0.000  36.807  -0.000   0.000  -0.000  -0.000  34.966  -0.000
 -0.000  -0.000  36.818  -0.000   0.000  -0.000  -0.000  34.977
 -0.000   0.000  -0.000  36.807   0.000  -0.000   0.000  -0.000
 -0.000  -0.000   0.000   0.000  36.726  -0.000  -0.000   0.000
 34.887  -0.000  -0.000  -0.000  -0.000  33.129  -0.000  -0.000
 -0.000  34.966  -0.000   0.000  -0.000  -0.000  33.206  -0.000
 -0.000  -0.000  34.977  -0.000   0.000  -0.000  -0.000  33.217
 -0.000   0.000  -0.000  34.966   0.000  -0.000   0.000  -0.000
 -0.000  -0.000   0.000   0.000  34.887  -0.000  -0.000   0.000
 -0.000   0.000  -0.009  -0.000   0.000  -0.000   0.000  -0.010
 -0.000   0.000  -0.017  -0.000   0.000  -0.000   0.000  -0.017
  0.002  -0.000   0.000   0.000  -0.000   0.002  -0.000   0.000
  0.000  -0.000  -0.000  -0.000  -0.000   0.000  -0.000  -0.000
 -0.000   0.000   0.000  -0.000  -0.002   0.000   0.000   0.000
  0.002  -0.000   0.000   0.000  -0.001   0.002  -0.000   0.000
  0.000  -0.000  -0.000  -0.000  -0.000   0.000  -0.000  -0.000
 -0.001   0.000   0.000  -0.000  -0.002  -0.000   0.000   0.000
 total augmentation occupancy for first ion, spin component:           1
  7.635  -0.002   0.000   0.001  -0.000  -3.914   0.002  -0.000  -0.001  -0.000  -0.000  -0.000   0.192   0.000  -0.214   0.006
 -0.002  10.109  -0.000  -0.000   0.001   0.002  -6.163   0.000  -0.000  -0.001  -0.000   0.000  -0.001   0.000  -0.000  -0.000
  0.000  -0.000   6.945   0.000   0.000  -0.000   0.000  -3.283  -0.000  -0.000  -0.196  -0.037   0.000   0.000  -0.000   0.000
  0.001  -0.000   0.000  10.109   0.002  -0.001   0.000  -0.000  -6.163  -0.002   0.000  -0.000   0.000   0.000  -0.001   0.000
  0.000   0.001   0.000   0.002   7.635   0.000  -0.001  -0.000  -0.002  -3.914  -0.000  -0.000  -0.214   0.000  -0.192  -0.006
 -3.914   0.002  -0.000  -0.001   0.000   2.294  -0.002   0.000   0.001  -0.000   0.000   0.000  -0.176  -0.000   0.196   0.002
  0.002  -6.163   0.000   0.000  -0.001  -0.002   4.344  -0.000  -0.000   0.001   0.000   0.000   0.001   0.000   0.000   0.000
 -0.000   0.000  -3.283  -0.000  -0.000   0.000  -0.000   1.714   0.000   0.000   0.196   0.012  -0.000  -0.000   0.000  -0.000
 -0.001  -0.000  -0.000  -6.163  -0.002   0.001  -0.000   0.000   4.344   0.002   0.000   0.000  -0.000   0.000   0.001  -0.000
 -0.000  -0.001  -0.000  -0.002  -3.914   0.000   0.001   0.000   0.002   2.294   0.000   0.000   0.196  -0.000   0.176  -0.003
 -0.000   0.000  -0.196   0.000  -0.000   0.000   0.000   0.196   0.000   0.000   1.191  -0.045   0.000   0.000   0.000   0.000
 -0.000  -0.000  -0.037  -0.000  -0.000   0.000   0.000   0.012   0.000   0.000  -0.045   0.010   0.000  -0.000   0.000   0.000
  0.192  -0.001   0.000   0.000  -0.214  -0.176   0.001  -0.000  -0.000   0.196   0.000   0.000   0.148   0.000  -0.000  -0.007
  0.000   0.000   0.000   0.000   0.000  -0.000   0.000  -0.000   0.000  -0.000   0.000  -0.000   0.000   0.182   0.000   0.000
 -0.214  -0.000  -0.000  -0.001  -0.192   0.196   0.000   0.000   0.001   0.176   0.000  -0.000  -0.000   0.000   0.148  -0.000
  0.006  -0.000   0.000   0.000  -0.006   0.002   0.000  -0.000  -0.000  -0.003  -0.000   0.000  -0.007   0.000  -0.000   0.001
 -0.000  -0.000  -0.000   0.000  -0.000   0.000   0.000   0.000   0.000   0.000  -0.000   0.000   0.000  -0.010   0.000   0.000
 -0.006  -0.000  -0.000  -0.000  -0.006  -0.003   0.000  -0.000   0.000  -0.002  -0.000  -0.000   0.000   0.000  -0.007  -0.000


------------------------ aborting loop because EDIFF is reached ----------------------------------------


    CHARGE:  cpu time    0.0720: real time    0.0720
    FORLOC:  cpu time    0.0051: real time    0.0152
    FORNL :  cpu time    0.2463: real time    0.2555
    STRESS:  cpu time    1.2864: real time    1.3056
    FORCOR:  cpu time    0.0373: real time    0.0394
    FORHAR:  cpu time    0.0109: real time    0.0115
    MIXING:  cpu time    0.0480: real time    0.0538
    OFIELD:  cpu time    0.0026: real time    0.0149

  FORCE on cell =-STRESS in cart. coord.  units (eV):
  Direction    XX          YY          ZZ          XY          YZ          ZX
  --------------------------------------------------------------------------------------
  Alpha Z    16.78718    16.78718    16.78718
  Ewald    5780.56984  5780.56984 -7127.71207    -0.00000    -0.00000     0.00000
  Hartree  8718.90496  8718.90496 -4586.84444     0.00000     0.00000     0.00000
  E(xc)    -230.30771  -230.30773  -231.44120    -0.00001    -0.00000     0.00000
  Local  -14021.98180-14021.98197 12854.25013    -0.00014     0.00000     0.00000
  n-local  1016.51984  1020.06601  1040.59711    -2.81965     0.01336     0.02241
  augment   -58.54339   -58.54324   -65.41722    -0.21290     0.00000    -0.00000
  Kinetic  1081.34334  1089.77927  1102.74851     2.08246    -0.02779    -0.01373
  Fock        0.00000     0.00000     0.00000     0.00000     0.00000     0.00000
  -------------------------------------------------------------------------------------
  Total    2309.28328  2309.28328  3002.96800     0.00000    -0.00000     0.00000
  in kB    3733.03169  3733.03169  4854.39565     0.00000    -0.00000     0.00000
  external pressure =     4106.82 kB  Pullay stress =        0.00 kB


 VOLUME and BASIS-vectors are now :
 -----------------------------------------------------------------------------
  energy-cutoff  :      520.00
  volume of cell :      991.12
      direct lattice vectors                 reciprocal lattice vectors
     7.284198123  0.000000000  0.000000000     0.137283471  0.079260649  0.000000000
    -3.642099061  6.308300621  0.000000000     0.000000000  0.158521298  0.000000000
     0.000000000  0.000000000 21.569098087     0.000000000  0.000000000  0.046362625

  length of vectors
     7.284198123  7.284198123 21.569098087     0.158521298  0.158521298  0.046362625


 FORCES acting on ions
    electron-ion (+dipol)            ewald-force                    non-local-force                 convergence-correction
 -----------------------------------------------------------------------------------------------
   -.125E-04 0.185E-05 -.110E+01   -.888E-12 0.746E-11 0.108E-01   0.184E-18 0.520E-19 0.724E-04   -.220E-07 -.541E-07 0.113E+01
   -.597E-06 -.130E-05 -.102E+01   0.213E-11 0.261E-11 -.146E-02   0.103E-15 -.101E-16 0.907E-02   -.681E-06 -.792E-06 0.107E+01
   0.659E+02 -.337E+03 0.483E+03   -.455E+02 -.908E-02 -.380E+03   0.211E+01 0.455E+02 0.446E+01   -.199E+02 0.301E+03 -.101E+03
   -.325E+03 0.111E+03 0.483E+03   0.227E+02 0.394E+02 -.380E+03   0.383E+02 -.246E+02 0.446E+01   0.270E+03 -.133E+03 -.101E+03
   0.259E+03 0.226E+03 0.483E+03   0.228E+02 -.394E+02 -.380E+03   -.404E+02 -.209E+02 0.446E+01   -.250E+03 -.168E+03 -.101E+03
   0.659E+02 -.336E+03 -.484E+03   -.455E+02 -.302E+00 0.380E+03   0.205E+01 0.455E+02 -.437E+01   -.198E+02 0.300E+03 0.101E+03
   -.324E+03 0.111E+03 -.484E+03   0.225E+02 0.395E+02 0.380E+03   0.383E+02 -.245E+02 -.437E+01   0.270E+03 -.133E+03 0.101E+03
   0.258E+03 0.225E+03 -.484E+03   0.230E+02 -.392E+02 0.380E+03   -.404E+02 -.209E+02 -.437E+01   -.250E+03 -.167E+03 0.101E+03
 -----------------------------------------------------------------------------------------------
   -.122E-04 0.774E-05 -.467E+01   0.000E+00 0.142E-13 0.000E+00   0.711E-14 0.000E+00 0.261E+00   -.714E-06 -.864E-06 0.445E+01
 
 
 POSITION                                       TOTAL-FORCE (eV/Angst)
 -----------------------------------------------------------------------------------
      3.64210      2.10277     10.78511         0.000000      0.000000      0.031209
      0.00000      4.20553     10.78332         0.000000      0.000000      0.051720
      3.11668      0.00034      9.00000         2.627139      9.368183      7.065845
      2.08406      3.60900      9.00000         6.799514     -6.959261      7.065845
      5.72556      2.69895      9.00000        -9.426654     -2.408922      7.065845
      3.11638      0.00096     12.56910         2.639591      9.444177     -7.093488
      2.08474      3.60896     12.56910         6.859102     -7.008042     -7.093488
      5.72518      2.69838     12.56910        -9.498693     -2.436135     -7.093488
 -----------------------------------------------------------------------------------
    total drift:                               -0.000013      0.000007      0.035518


--------------------------------------------------------------------------------------------------------



  FREE ENERGIE OF THE ION-ELECTRON SYSTEM (eV)
  ---------------------------------------------------
  free  energy   TOTEN  =     -1289.71168361 eV

  energy  without entropy=    -1289.70782705  energy(sigma->0) =    -1289.70975533
 


--------------------------------------------------------------------------------------------------------


    POTLOK:  cpu time    0.0471: real time    0.0494


--------------------------------------------------------------------------------------------------------


 writing wavefunctions
     LOOP+:  cpu time 1928.2997: real time 1929.2977


--------------------------------------------------------------------------------------------------------


    DPSIDK:  cpu time    0.0000: real time    0.0000
    DPSIDK:  cpu time    0.0000: real time    0.0000
    DPSIDK:  cpu time    0.0000: real time    0.0000

 plasma frequency squared (from intraband transitions) (eV^2)
  --------------------------------------------------------------------------------------
       0.000       0.000       0.000
       0.000       0.000       0.000
       0.000       0.000       0.000

 electrical conductivity sigma (Mega S m-1) (frequency dependency in vasprun.xml)
  --------------------------------------------------------------------------------------
       0.000       0.000       0.000
       0.000       0.000       0.000
       0.000       0.000       0.000

 plasma frequency squared (from interband transitions, int dw w eps(2)(w)) (eV^2)
  --------------------------------------------------------------------------------------
       0.000       0.000       0.000       0.000       0.000       0.000
       0.000       0.000       0.000       0.000       0.000       0.000
       0.000       0.000       0.000       0.000       0.000       0.000
  --------------------------------------------------------------------------------------
 sumrule: sum of plasma frequencies squared should yield (valence only):      80.691

 Anomalous Hall contribution (eV) 2/pi Imag((f_n-f_m)<u_m| d/dk_a u_n> <u_m| d/dk_b u_n>^*) 
  --------------------------------------------------------------------------------------
       0.000       0.000       0.000
       0.000       0.000       0.000
       0.000       0.000       0.000

  frequency dependent IMAGINARY DIELECTRIC FUNCTION (independent particle, no local field effects) density-density
     E(ev)      X         Y         Z        XY        YZ        ZX
  --------------------------------------------------------------------------------------------------------------
    0.000000    0.000000    0.000000    0.000000    0.000000    0.000000    0.000000
    0.400400    0.000000    0.000000    0.000000    0.000000    0.000000    0.000000
    0.800801    0.000000    0.000000    0.000000    0.000000    0.000000    0.000000
    1.201201    0.000000    0.000000    0.000000    0.000000    0.000000    0.000000
    1.601602    0.000000    0.000000    0.000000    0.000000    0.000000    0.000000
    2.002002    0.000000    0.000000    0.000000    0.000000    0.000000    0.000000
    2.402402    0.000000    0.000000    0.000000    0.000000    0.000000    0.000000
    2.802803    0.000000    0.000000    0.000000    0.000000    0.000000    0.000000
    3.203203    0.000000    0.000000    0.000000    0.000000    0.000000    0.000000
    3.603604    0.000000    0.000000    0.000000    0.000000    0.000000    0.000000
    4.004004    0.000000    0.000000    0.000000    0.000000    0.000000    0.000000
    4.404404    0.000000    0.000000    0.000000    0.000000    0.000000    0.000000
    4.804805    0.000000    0.000000    0.000000    0.000000    0.000000    0.000000
    5.205205    0.000000    0.000000    0.000000    0.000000    0.000000    0.000000
    5.605606    0.000000    0.000000    0.000000    0.000000    0.000000    0.000000
    6.006006    0.000000    0.000000    0.000000    0.000000    0.000000    0.000000
    6.406406    0.000000    0.000000    0.000000    0.000000    0.000000    0.000000
    6.806807    0.000000    0.000000    0.000000    0.000000    0.000000    0.000000
    7.207207    0.000000    0.000000    0.000000    0.000000    0.000000    0.000000
    7.607608    0.000000    0.000000    0.000000    0.000000    0.000000    0.000000
    8.008008    0.000000    0.000000    0.000000    0.000000    0.000000    0.000000
    8.408408    0.000000    0.000000    0.000000    0.000000    0.000000    0.000000
    8.808809    0.000000    0.000000    0.000000    0.000000    0.000000    0.000000
    9.209209    0.000000    0.000000    0.000000    0.000000    0.000000    0.000000
    9.609610    0.000000    0.000000    0.000000    0.000000    0.000000    0.000000
   10.010010    0.000000    0.000000    0.000000    0.000000    0.000000    0.000000
   10.410410    0.000000    0.000000    0.000000    0.000000    0.000000    0.000000
   10.810811    0.000000    0.000000    0.000000    0.000000    0.000000    0.000000
   11.211211    0.000000    0.000000    0.000000    0.000000    0.000000    0.000000
   11.611612    0.000000    0.000000    0.000000    0.000000    0.000000    0.000000
   12.012012    0.000000    0.000000    0.000000    0.000000    0.000000    0.000000
   12.412412    0.000000    0.000000    0.000000    0.000000    0.000000    0.000000
   12.812813    0.000000    0.000000    0.000000    0.000000    0.000000    0.000000
   13.213213    0.000000    0.000000    0.000000    0.000000    0.000000    0.000000
   13.613614    0.000000    0.000000    0.000000    0.000000    0.000000    0.000000
   14.014014    0.000000    0.000000    0.000000    0.000000    0.000000    0.000000
   14.414414    0.000000    0.000000    0.000000    0.000000    0.000000    0.000000
   14.814815    0.000000    0.000000    0.000000    0.000000    0.000000    0.000000
   15.215215    0.000000    0.000000    0.000000    0.000000    0.000000    0.000000
   15.615616    0.000000    0.000000    0.000000    0.000000    0.000000    0.000000
   16.016016    0.000000    0.000000    0.000000    0.000000    0.000000    0.000000
   16.416416    0.000000    0.000000    0.000000    0.000000    0.000000    0.000000
   16.816817    0.000000    0.000000    0.000000    0.000000    0.000000    0.000000
   17.217217    0.000000    0.000000    0.000000    0.000000    0.000000    0.000000
   17.617618    0.000000    0.000000    0.000000    0.000000    0.000000    0.000000
   18.018018    0.000000    0.000000    0.000000    0.000000    0.000000    0.000000
   18.418418    0.000000    0.000000    0.000000    0.000000    0.000000    0.000000
   18.818819    0.000000    0.000000    0.000000    0.000000    0.000000    0.000000
   19.219219    0.000000    0.000000    0.000000    0.000000    0.000000    0.000000
   19.619620    0.000000    0.000000    0.000000    0.000000    0.000000    0.000000
   20.020020    0.000000    0.000000    0.000000    0.000000    0.000000    0.000000
   20.420420    0.000000    0.000000    0.000000    0.000000    0.000000    0.000000
   20.820821    0.000000    0.000000    0.000000    0.000000    0.000000    0.000000
   21.221221    0.000000    0.000000    0.000000    0.000000    0.000000    0.000000
   21.621622    0.000000    0.000000    0.000000    0.000000    0.000000    0.000000
   22.022022    0.000000    0.000000    0.000000    0.000000    0.000000    0.000000
   22.422422    0.000000    0.000000    0.000000    0.000000    0.000000    0.000000
   22.822823    0.000000    0.000000    0.000000    0.000000    0.000000    0.000000
   23.223223    0.000000    0.000000    0.000000    0.000000    0.000000    0.000000
   23.623624    0.000000    0.000000    0.000000    0.000000    0.000000    0.000000
   24.024024    0.000000    0.000000    0.000000    0.000000    0.000000    0.000000
   24.424424    0.000000    0.000000    0.000000    0.000000    0.000000    0.000000
   24.824825    0.000000    0.000000    0.000000    0.000000    0.000000    0.000000
   25.225225    0.000000    0.000000    0.000000    0.000000    0.000000    0.000000
   25.625626    0.000000    0.000000    0.000000    0.000000    0.000000    0.000000
   26.026026    0.000000    0.000000    0.000000    0.000000    0.000000    0.000000
   26.426426    0.000000    0.000000    0.000000    0.000000    0.000000    0.000000
   26.826827    0.000000    0.000000    0.000000    0.000000    0.000000    0.000000
   27.227227    0.000000    0.000000    0.000000    0.000000    0.000000    0.000000
   27.627628    0.000000    0.000000    0.000000    0.000000    0.000000    0.000000
   28.028028    0.000000    0.000000    0.000000    0.000000    0.000000    0.000000
   28.428428    0.000000    0.000000    0.000000    0.000000    0.000000    0.000000
   28.828829    0.000000    0.000000    0.000000    0.000000    0.000000    0.000000
   29.229229    0.000000    0.000000    0.000000    0.000000    0.000000    0.000000
   29.629630    0.000000    0.000000    0.000000    0.000000    0.000000    0.000000
   30.030030    0.000000    0.000000    0.000000    0.000000    0.000000    0.000000
   30.430430    0.000000    0.000000    0.000000    0.000000    0.000000    0.000000
   30.830831    0.000000    0.000000    0.000000    0.000000    0.000000    0.000000
   31.231231    0.000000    0.000000    0.000000    0.000000    0.000000    0.000000
   31.631632    0.000000    0.000000    0.000000    0.000000    0.000000    0.000000
   32.032032    0.000000    0.000000    0.000000    0.000000    0.000000    0.000000
   32.432432    0.000000    0.000000    0.000000    0.000000    0.000000    0.000000
   32.832833    0.000000    0.000000    0.000000    0.000000    0.000000    0.000000
   33.233233    0.000000    0.000000    0.000000    0.000000    0.000000    0.000000
   33.633634    0.000000    0.000000    0.000000    0.000000    0.000000    0.000000
   34.034034    0.000000    0.000000    0.000000    0.000000    0.000000    0.000000
   34.434434    0.000000    0.000000    0.000000    0.000000    0.000000    0.000000
   34.834835    0.000000    0.000000    0.000000    0.000000    0.000000    0.000000
   35.235235    0.000000    0.000000    0.000000    0.000000    0.000000    0.000000
   35.635636    0.000000    0.000000    0.000000    0.000000    0.000000    0.000000
   36.036036    0.000000    0.000000    0.000000    0.000000    0.000000    0.000000
   36.436436    0.000000    0.000000    0.000000    0.000000    0.000000    0.000000
   36.836837    0.000000    0.000000    0.000000    0.000000    0.000000    0.000000
   37.237237    0.000000    0.000000    0.000000    0.000000    0.000000    0.000000
   37.637638    0.000000    0.000000    0.000000    0.000000    0.000000    0.000000
   38.038038    0.000000    0.000000    0.000000    0.000000    0.000000    0.000000
   38.438438    0.000000    0.000000    0.000000    0.000000    0.000000    0.000000
   38.838839    0.000000    0.000000    0.000000    0.000000    0.000000    0.000000
   39.239239    0.000000    0.000000    0.000000    0.000000    0.000000    0.000000
   39.639640    0.000000    0.000000    0.000000    0.000000    0.000000    0.000000

  frequency dependent      REAL DIELECTRIC FUNCTION (independent particle, no local field effects) density-density
     E(ev)        X           Y           Z          XY          YZ          ZX
  --------------------------------------------------------------------------------------------------------------
    0.000000    1.000000    1.000000    1.000000    0.000000    0.000000    0.000000
    0.400400    1.000000    1.000000    1.000000    0.000000    0.000000    0.000000
    0.800801    1.000000    1.000000    1.000000    0.000000    0.000000    0.000000
    1.201201    1.000000    1.000000    1.000000    0.000000    0.000000    0.000000
    1.601602    1.000000    1.000000    1.000000    0.000000    0.000000    0.000000
    2.002002    1.000000    1.000000    1.000000    0.000000    0.000000    0.000000
    2.402402    1.000000    1.000000    1.000000    0.000000    0.000000    0.000000
    2.802803    1.000000    1.000000    1.000000    0.000000    0.000000    0.000000
    3.203203    1.000000    1.000000    1.000000    0.000000    0.000000    0.000000
    3.603604    1.000000    1.000000    1.000000    0.000000    0.000000    0.000000
    4.004004    1.000000    1.000000    1.000000    0.000000    0.000000    0.000000
    4.404404    1.000000    1.000000    1.000000    0.000000    0.000000    0.000000
    4.804805    1.000000    1.000000    1.000000    0.000000    0.000000    0.000000
    5.205205    1.000000    1.000000    1.000000    0.000000    0.000000    0.000000
    5.605606    1.000000    1.000000    1.000000    0.000000    0.000000    0.000000
    6.006006    1.000000    1.000000    1.000000    0.000000    0.000000    0.000000
    6.406406    1.000000    1.000000    1.000000    0.000000    0.000000    0.000000
    6.806807    1.000000    1.000000    1.000000    0.000000    0.000000    0.000000
    7.207207    1.000000    1.000000    1.000000    0.000000    0.000000    0.000000
    7.607608    1.000000    1.000000    1.000000    0.000000    0.000000    0.000000
    8.008008    1.000000    1.000000    1.000000    0.000000    0.000000    0.000000
    8.408408    1.000000    1.000000    1.000000    0.000000    0.000000    0.000000
    8.808809    1.000000    1.000000    1.000000    0.000000    0.000000    0.000000
    9.209209    1.000000    1.000000    1.000000    0.000000    0.000000    0.000000
    9.609610    1.000000    1.000000    1.000000    0.000000    0.000000    0.000000
   10.010010    1.000000    1.000000    1.000000    0.000000    0.000000    0.000000
   10.410410    1.000000    1.000000    1.000000    0.000000    0.000000    0.000000
   10.810811    1.000000    1.000000    1.000000    0.000000    0.000000    0.000000
   11.211211    1.000000    1.000000    1.000000    0.000000    0.000000    0.000000
   11.611612    1.000000    1.000000    1.000000    0.000000    0.000000    0.000000
   12.012012    1.000000    1.000000    1.000000    0.000000    0.000000    0.000000
   12.412412    1.000000    1.000000    1.000000    0.000000    0.000000    0.000000
   12.812813    1.000000    1.000000    1.000000    0.000000    0.000000    0.000000
   13.213213    1.000000    1.000000    1.000000    0.000000    0.000000    0.000000
   13.613614    1.000000    1.000000    1.000000    0.000000    0.000000    0.000000
   14.014014    1.000000    1.000000    1.000000    0.000000    0.000000    0.000000
   14.414414    1.000000    1.000000    1.000000    0.000000    0.000000    0.000000
   14.814815    1.000000    1.000000    1.000000    0.000000    0.000000    0.000000
   15.215215    1.000000    1.000000    1.000000    0.000000    0.000000    0.000000
   15.615616    1.000000    1.000000    1.000000    0.000000    0.000000    0.000000
   16.016016    1.000000    1.000000    1.000000    0.000000    0.000000    0.000000
   16.416416    1.000000    1.000000    1.000000    0.000000    0.000000    0.000000
   16.816817    1.000000    1.000000    1.000000    0.000000    0.000000    0.000000
   17.217217    1.000000    1.000000    1.000000    0.000000    0.000000    0.000000
   17.617618    1.000000    1.000000    1.000000    0.000000    0.000000    0.000000
   18.018018    1.000000    1.000000    1.000000    0.000000    0.000000    0.000000
   18.418418    1.000000    1.000000    1.000000    0.000000    0.000000    0.000000
   18.818819    1.000000    1.000000    1.000000    0.000000    0.000000    0.000000
   19.219219    1.000000    1.000000    1.000000    0.000000    0.000000    0.000000
   19.619620    1.000000    1.000000    1.000000    0.000000    0.000000    0.000000
   20.020020    1.000000    1.000000    1.000000    0.000000    0.000000    0.000000
   20.420420    1.000000    1.000000    1.000000    0.000000    0.000000    0.000000
   20.820821    1.000000    1.000000    1.000000    0.000000    0.000000    0.000000
   21.221221    1.000000    1.000000    1.000000    0.000000    0.000000    0.000000
   21.621622    1.000000    1.000000    1.000000    0.000000    0.000000    0.000000
   22.022022    1.000000    1.000000    1.000000    0.000000    0.000000    0.000000
   22.422422    1.000000    1.000000    1.000000    0.000000    0.000000    0.000000
   22.822823    1.000000    1.000000    1.000000    0.000000    0.000000    0.000000
   23.223223    1.000000    1.000000    1.000000    0.000000    0.000000    0.000000
   23.623624    1.000000    1.000000    1.000000    0.000000    0.000000    0.000000
   24.024024    1.000000    1.000000    1.000000    0.000000    0.000000    0.000000
   24.424424    1.000000    1.000000    1.000000    0.000000    0.000000    0.000000
   24.824825    1.000000    1.000000    1.000000    0.000000    0.000000    0.000000
   25.225225    1.000000    1.000000    1.000000    0.000000    0.000000    0.000000
   25.625626    1.000000    1.000000    1.000000    0.000000    0.000000    0.000000
   26.026026    1.000000    1.000000    1.000000    0.000000    0.000000    0.000000
   26.426426    1.000000    1.000000    1.000000    0.000000    0.000000    0.000000
   26.826827    1.000000    1.000000    1.000000    0.000000    0.000000    0.000000
   27.227227    1.000000    1.000000    1.000000    0.000000    0.000000    0.000000
   27.627628    1.000000    1.000000    1.000000    0.000000    0.000000    0.000000
   28.028028    1.000000    1.000000    1.000000    0.000000    0.000000    0.000000
   28.428428    1.000000    1.000000    1.000000    0.000000    0.000000    0.000000
   28.828829    1.000000    1.000000    1.000000    0.000000    0.000000    0.000000
   29.229229    1.000000    1.000000    1.000000    0.000000    0.000000    0.000000
   29.629630    1.000000    1.000000    1.000000    0.000000    0.000000    0.000000
   30.030030    1.000000    1.000000    1.000000    0.000000    0.000000    0.000000
   30.430430    1.000000    1.000000    1.000000    0.000000    0.000000    0.000000
   30.830831    1.000000    1.000000    1.000000    0.000000    0.000000    0.000000
   31.231231    1.000000    1.000000    1.000000    0.000000    0.000000    0.000000
   31.631632    1.000000    1.000000    1.000000    0.000000    0.000000    0.000000
   32.032032    1.000000    1.000000    1.000000    0.000000    0.000000    0.000000
   32.432432    1.000000    1.000000    1.000000    0.000000    0.000000    0.000000
   32.832833    1.000000    1.000000    1.000000    0.000000    0.000000    0.000000
   33.233233    1.000000    1.000000    1.000000    0.000000    0.000000    0.000000
   33.633634    1.000000    1.000000    1.000000    0.000000    0.000000    0.000000
   34.034034    1.000000    1.000000    1.000000    0.000000    0.000000    0.000000
   34.434434    1.000000    1.000000    1.000000    0.000000    0.000000    0.000000
   34.834835    1.000000    1.000000    1.000000    0.000000    0.000000    0.000000
   35.235235    1.000000    1.000000    1.000000    0.000000    0.000000    0.000000
   35.635636    1.000000    1.000000    1.000000    0.000000    0.000000    0.000000
   36.036036    1.000000    1.000000    1.000000    0.000000    0.000000    0.000000
   36.436436    1.000000    1.000000    1.000000    0.000000    0.000000    0.000000
   36.836837    1.000000    1.000000    1.000000    0.000000    0.000000    0.000000
   37.237237    1.000000    1.000000    1.000000    0.000000    0.000000    0.000000
   37.637638    1.000000    1.000000    1.000000    0.000000    0.000000    0.000000
   38.038038    1.000000    1.000000    1.000000    0.000000    0.000000    0.000000
   38.438438    1.000000    1.000000    1.000000    0.000000    0.000000    0.000000
   38.838839    1.000000    1.000000    1.000000    0.000000    0.000000    0.000000
   39.239239    1.000000    1.000000    1.000000    0.000000    0.000000    0.000000
   39.639640    1.000000    1.000000    1.000000    0.000000    0.000000    0.000000

  frequency dependent IMAGINARY DIELECTRIC FUNCTION (independent particle, no local field effects) current-current (2nd set in vasprun.xml)
     E(ev)      X         Y         Z        XY        YZ        ZX
  --------------------------------------------------------------------------------------------------------------
    0.000000    0.000000    0.000000    0.000000    0.000000    0.000000    0.000000
    0.400400    0.000000    0.000000    0.000000    0.000000    0.000000    0.000000
    0.800801    0.000000    0.000000    0.000000    0.000000    0.000000    0.000000
    1.201201    0.000000    0.000000    0.000000    0.000000    0.000000    0.000000
    1.601602    0.000000    0.000000    0.000000    0.000000    0.000000    0.000000
    2.002002    0.000000    0.000000    0.000000    0.000000    0.000000    0.000000
    2.402402    0.000000    0.000000    0.000000    0.000000    0.000000    0.000000
    2.802803    0.000000    0.000000    0.000000    0.000000    0.000000    0.000000
    3.203203    0.000000    0.000000    0.000000    0.000000    0.000000    0.000000
    3.603604    0.000000    0.000000    0.000000    0.000000    0.000000    0.000000
    4.004004    0.000000    0.000000    0.000000    0.000000    0.000000    0.000000
    4.404404    0.000000    0.000000    0.000000    0.000000    0.000000    0.000000
    4.804805    0.000000    0.000000    0.000000    0.000000    0.000000    0.000000
    5.205205    0.000000    0.000000    0.000000    0.000000    0.000000    0.000000
    5.605606    0.000000    0.000000    0.000000    0.000000    0.000000    0.000000
    6.006006    0.000000    0.000000    0.000000    0.000000    0.000000    0.000000
    6.406406    0.000000    0.000000    0.000000    0.000000    0.000000    0.000000
    6.806807    0.000000    0.000000    0.000000    0.000000    0.000000    0.000000
    7.207207    0.000000    0.000000    0.000000    0.000000    0.000000    0.000000
    7.607608    0.000000    0.000000    0.000000    0.000000    0.000000    0.000000
    8.008008    0.000000    0.000000    0.000000    0.000000    0.000000    0.000000
    8.408408    0.000000    0.000000    0.000000    0.000000    0.000000    0.000000
    8.808809    0.000000    0.000000    0.000000    0.000000    0.000000    0.000000
    9.209209    0.000000    0.000000    0.000000    0.000000    0.000000    0.000000
    9.609610    0.000000    0.000000    0.000000    0.000000    0.000000    0.000000
   10.010010    0.000000    0.000000    0.000000    0.000000    0.000000    0.000000
   10.410410    0.000000    0.000000    0.000000    0.000000    0.000000    0.000000
   10.810811    0.000000    0.000000    0.000000    0.000000    0.000000    0.000000
   11.211211    0.000000    0.000000    0.000000    0.000000    0.000000    0.000000
   11.611612    0.000000    0.000000    0.000000    0.000000    0.000000    0.000000
   12.012012    0.000000    0.000000    0.000000    0.000000    0.000000    0.000000
   12.412412    0.000000    0.000000    0.000000    0.000000    0.000000    0.000000
   12.812813    0.000000    0.000000    0.000000    0.000000    0.000000    0.000000
   13.213213    0.000000    0.000000    0.000000    0.000000    0.000000    0.000000
   13.613614    0.000000    0.000000    0.000000    0.000000    0.000000    0.000000
   14.014014    0.000000    0.000000    0.000000    0.000000    0.000000    0.000000
   14.414414    0.000000    0.000000    0.000000    0.000000    0.000000    0.000000
   14.814815    0.000000    0.000000    0.000000    0.000000    0.000000    0.000000
   15.215215    0.000000    0.000000    0.000000    0.000000    0.000000    0.000000
   15.615616    0.000000    0.000000    0.000000    0.000000    0.000000    0.000000
   16.016016    0.000000    0.000000    0.000000    0.000000    0.000000    0.000000
   16.416416    0.000000    0.000000    0.000000    0.000000    0.000000    0.000000
   16.816817    0.000000    0.000000    0.000000    0.000000    0.000000    0.000000
   17.217217    0.000000    0.000000    0.000000    0.000000    0.000000    0.000000
   17.617618    0.000000    0.000000    0.000000    0.000000    0.000000    0.000000
   18.018018    0.000000    0.000000    0.000000    0.000000    0.000000    0.000000
   18.418418    0.000000    0.000000    0.000000    0.000000    0.000000    0.000000
   18.818819    0.000000    0.000000    0.000000    0.000000    0.000000    0.000000
   19.219219    0.000000    0.000000    0.000000    0.000000    0.000000    0.000000
   19.619620    0.000000    0.000000    0.000000    0.000000    0.000000    0.000000
   20.020020    0.000000    0.000000    0.000000    0.000000    0.000000    0.000000
   20.420420    0.000000    0.000000    0.000000    0.000000    0.000000    0.000000
   20.820821    0.000000    0.000000    0.000000    0.000000    0.000000    0.000000
   21.221221    0.000000    0.000000    0.000000    0.000000    0.000000    0.000000
   21.621622    0.000000    0.000000    0.000000    0.000000    0.000000    0.000000
   22.022022    0.000000    0.000000    0.000000    0.000000    0.000000    0.000000
   22.422422    0.000000    0.000000    0.000000    0.000000    0.000000    0.000000
   22.822823    0.000000    0.000000    0.000000    0.000000    0.000000    0.000000
   23.223223    0.000000    0.000000    0.000000    0.000000    0.000000    0.000000
   23.623624    0.000000    0.000000    0.000000    0.000000    0.000000    0.000000
   24.024024    0.000000    0.000000    0.000000    0.000000    0.000000    0.000000
   24.424424    0.000000    0.000000    0.000000    0.000000    0.000000    0.000000
   24.824825    0.000000    0.000000    0.000000    0.000000    0.000000    0.000000
   25.225225    0.000000    0.000000    0.000000    0.000000    0.000000    0.000000
   25.625626    0.000000    0.000000    0.000000    0.000000    0.000000    0.000000
   26.026026    0.000000    0.000000    0.000000    0.000000    0.000000    0.000000
   26.426426    0.000000    0.000000    0.000000    0.000000    0.000000    0.000000
   26.826827    0.000000    0.000000    0.000000    0.000000    0.000000    0.000000
   27.227227    0.000000    0.000000    0.000000    0.000000    0.000000    0.000000
   27.627628    0.000000    0.000000    0.000000    0.000000    0.000000    0.000000
   28.028028    0.000000    0.000000    0.000000    0.000000    0.000000    0.000000
   28.428428    0.000000    0.000000    0.000000    0.000000    0.000000    0.000000
   28.828829    0.000000    0.000000    0.000000    0.000000    0.000000    0.000000
   29.229229    0.000000    0.000000    0.000000    0.000000    0.000000    0.000000
   29.629630    0.000000    0.000000    0.000000    0.000000    0.000000    0.000000
   30.030030    0.000000    0.000000    0.000000    0.000000    0.000000    0.000000
   30.430430    0.000000    0.000000    0.000000    0.000000    0.000000    0.000000
   30.830831    0.000000    0.000000    0.000000    0.000000    0.000000    0.000000
   31.231231    0.000000    0.000000    0.000000    0.000000    0.000000    0.000000
   31.631632    0.000000    0.000000    0.000000    0.000000    0.000000    0.000000
   32.032032    0.000000    0.000000    0.000000    0.000000    0.000000    0.000000
   32.432432    0.000000    0.000000    0.000000    0.000000    0.000000    0.000000
   32.832833    0.000000    0.000000    0.000000    0.000000    0.000000    0.000000
   33.233233    0.000000    0.000000    0.000000    0.000000    0.000000    0.000000
   33.633634    0.000000    0.000000    0.000000    0.000000    0.000000    0.000000
   34.034034    0.000000    0.000000    0.000000    0.000000    0.000000    0.000000
   34.434434    0.000000    0.000000    0.000000    0.000000    0.000000    0.000000
   34.834835    0.000000    0.000000    0.000000    0.000000    0.000000    0.000000
   35.235235    0.000000    0.000000    0.000000    0.000000    0.000000    0.000000
   35.635636    0.000000    0.000000    0.000000    0.000000    0.000000    0.000000
   36.036036    0.000000    0.000000    0.000000    0.000000    0.000000    0.000000
   36.436436    0.000000    0.000000    0.000000    0.000000    0.000000    0.000000
   36.836837    0.000000    0.000000    0.000000    0.000000    0.000000    0.000000
   37.237237    0.000000    0.000000    0.000000    0.000000    0.000000    0.000000
   37.637638    0.000000    0.000000    0.000000    0.000000    0.000000    0.000000
   38.038038    0.000000    0.000000    0.000000    0.000000    0.000000    0.000000
   38.438438    0.000000    0.000000    0.000000    0.000000    0.000000    0.000000
   38.838839    0.000000    0.000000    0.000000    0.000000    0.000000    0.000000
   39.239239    0.000000    0.000000    0.000000    0.000000    0.000000    0.000000
   39.639640    0.000000    0.000000    0.000000    0.000000    0.000000    0.000000

  frequency dependent      REAL DIELECTRIC FUNCTION (independent particle, no local field effects) current-current (2nd set in vasprun.xml)
     E(ev)        X           Y           Z          XY          YZ          ZX
  --------------------------------------------------------------------------------------------------------------
    0.000000    1.000000    1.000000    1.000000    0.000000    0.000000    0.000000
    0.400400    1.000000    1.000000    1.000000    0.000000    0.000000    0.000000
    0.800801    1.000000    1.000000    1.000000    0.000000    0.000000    0.000000
    1.201201    1.000000    1.000000    1.000000    0.000000    0.000000    0.000000
    1.601602    1.000000    1.000000    1.000000    0.000000    0.000000    0.000000
    2.002002    1.000000    1.000000    1.000000    0.000000    0.000000    0.000000
    2.402402    1.000000    1.000000    1.000000    0.000000    0.000000    0.000000
    2.802803    1.000000    1.000000    1.000000    0.000000    0.000000    0.000000
    3.203203    1.000000    1.000000    1.000000    0.000000    0.000000    0.000000
    3.603604    1.000000    1.000000    1.000000    0.000000    0.000000    0.000000
    4.004004    1.000000    1.000000    1.000000    0.000000    0.000000    0.000000
    4.404404    1.000000    1.000000    1.000000    0.000000    0.000000    0.000000
    4.804805    1.000000    1.000000    1.000000    0.000000    0.000000    0.000000
    5.205205    1.000000    1.000000    1.000000    0.000000    0.000000    0.000000
    5.605606    1.000000    1.000000    1.000000    0.000000    0.000000    0.000000
    6.006006    1.000000    1.000000    1.000000    0.000000    0.000000    0.000000
    6.406406    1.000000    1.000000    1.000000    0.000000    0.000000    0.000000
    6.806807    1.000000    1.000000    1.000000    0.000000    0.000000    0.000000
    7.207207    1.000000    1.000000    1.000000    0.000000    0.000000    0.000000
    7.607608    1.000000    1.000000    1.000000    0.000000    0.000000    0.000000
    8.008008    1.000000    1.000000    1.000000    0.000000    0.000000    0.000000
    8.408408    1.000000    1.000000    1.000000    0.000000    0.000000    0.000000
    8.808809    1.000000    1.000000    1.000000    0.000000    0.000000    0.000000
    9.209209    1.000000    1.000000    1.000000    0.000000    0.000000    0.000000
    9.609610    1.000000    1.000000    1.000000    0.000000    0.000000    0.000000
   10.010010    1.000000    1.000000    1.000000    0.000000    0.000000    0.000000
   10.410410    1.000000    1.000000    1.000000    0.000000    0.000000    0.000000
   10.810811    1.000000    1.000000    1.000000    0.000000    0.000000    0.000000
   11.211211    1.000000    1.000000    1.000000    0.000000    0.000000    0.000000
   11.611612    1.000000    1.000000    1.000000    0.000000    0.000000    0.000000
   12.012012    1.000000    1.000000    1.000000    0.000000    0.000000    0.000000
   12.412412    1.000000    1.000000    1.000000    0.000000    0.000000    0.000000
   12.812813    1.000000    1.000000    1.000000    0.000000    0.000000    0.000000
   13.213213    1.000000    1.000000    1.000000    0.000000    0.000000    0.000000
   13.613614    1.000000    1.000000    1.000000    0.000000    0.000000    0.000000
   14.014014    1.000000    1.000000    1.000000    0.000000    0.000000    0.000000
   14.414414    1.000000    1.000000    1.000000    0.000000    0.000000    0.000000
   14.814815    1.000000    1.000000    1.000000    0.000000    0.000000    0.000000
   15.215215    1.000000    1.000000    1.000000    0.000000    0.000000    0.000000
   15.615616    1.000000    1.000000    1.000000    0.000000    0.000000    0.000000
   16.016016    1.000000    1.000000    1.000000    0.000000    0.000000    0.000000
   16.416416    1.000000    1.000000    1.000000    0.000000    0.000000    0.000000
   16.816817    1.000000    1.000000    1.000000    0.000000    0.000000    0.000000
   17.217217    1.000000    1.000000    1.000000    0.000000    0.000000    0.000000
   17.617618    1.000000    1.000000    1.000000    0.000000    0.000000    0.000000
   18.018018    1.000000    1.000000    1.000000    0.000000    0.000000    0.000000
   18.418418    1.000000    1.000000    1.000000    0.000000    0.000000    0.000000
   18.818819    1.000000    1.000000    1.000000    0.000000    0.000000    0.000000
   19.219219    1.000000    1.000000    1.000000    0.000000    0.000000    0.000000
   19.619620    1.000000    1.000000    1.000000    0.000000    0.000000    0.000000
   20.020020    1.000000    1.000000    1.000000    0.000000    0.000000    0.000000
   20.420420    1.000000    1.000000    1.000000    0.000000    0.000000    0.000000
   20.820821    1.000000    1.000000    1.000000    0.000000    0.000000    0.000000
   21.221221    1.000000    1.000000    1.000000    0.000000    0.000000    0.000000
   21.621622    1.000000    1.000000    1.000000    0.000000    0.000000    0.000000
   22.022022    1.000000    1.000000    1.000000    0.000000    0.000000    0.000000
   22.422422    1.000000    1.000000    1.000000    0.000000    0.000000    0.000000
   22.822823    1.000000    1.000000    1.000000    0.000000    0.000000    0.000000
   23.223223    1.000000    1.000000    1.000000    0.000000    0.000000    0.000000
   23.623624    1.000000    1.000000    1.000000    0.000000    0.000000    0.000000
   24.024024    1.000000    1.000000    1.000000    0.000000    0.000000    0.000000
   24.424424    1.000000    1.000000    1.000000    0.000000    0.000000    0.000000
   24.824825    1.000000    1.000000    1.000000    0.000000    0.000000    0.000000
   25.225225    1.000000    1.000000    1.000000    0.000000    0.000000    0.000000
   25.625626    1.000000    1.000000    1.000000    0.000000    0.000000    0.000000
   26.026026    1.000000    1.000000    1.000000    0.000000    0.000000    0.000000
   26.426426    1.000000    1.000000    1.000000    0.000000    0.000000    0.000000
   26.826827    1.000000    1.000000    1.000000    0.000000    0.000000    0.000000
   27.227227    1.000000    1.000000    1.000000    0.000000    0.000000    0.000000
   27.627628    1.000000    1.000000    1.000000    0.000000    0.000000    0.000000
   28.028028    1.000000    1.000000    1.000000    0.000000    0.000000    0.000000
   28.428428    1.000000    1.000000    1.000000    0.000000    0.000000    0.000000
   28.828829    1.000000    1.000000    1.000000    0.000000    0.000000    0.000000
   29.229229    1.000000    1.000000    1.000000    0.000000    0.000000    0.000000
   29.629630    1.000000    1.000000    1.000000    0.000000    0.000000    0.000000
   30.030030    1.000000    1.000000    1.000000    0.000000    0.000000    0.000000
   30.430430    1.000000    1.000000    1.000000    0.000000    0.000000    0.000000
   30.830831    1.000000    1.000000    1.000000    0.000000    0.000000    0.000000
   31.231231    1.000000    1.000000    1.000000    0.000000    0.000000    0.000000
   31.631632    1.000000    1.000000    1.000000    0.000000    0.000000    0.000000
   32.032032    1.000000    1.000000    1.000000    0.000000    0.000000    0.000000
   32.432432    1.000000    1.000000    1.000000    0.000000    0.000000    0.000000
   32.832833    1.000000    1.000000    1.000000    0.000000    0.000000    0.000000
   33.233233    1.000000    1.000000    1.000000    0.000000    0.000000    0.000000
   33.633634    1.000000    1.000000    1.000000    0.000000    0.000000    0.000000
   34.034034    1.000000    1.000000    1.000000    0.000000    0.000000    0.000000
   34.434434    1.000000    1.000000    1.000000    0.000000    0.000000    0.000000
   34.834835    1.000000    1.000000    1.000000    0.000000    0.000000    0.000000
   35.235235    1.000000    1.000000    1.000000    0.000000    0.000000    0.000000
   35.635636    1.000000    1.000000    1.000000    0.000000    0.000000    0.000000
   36.036036    1.000000    1.000000    1.000000    0.000000    0.000000    0.000000
   36.436436    1.000000    1.000000    1.000000    0.000000    0.000000    0.000000
   36.836837    1.000000    1.000000    1.000000    0.000000    0.000000    0.000000
   37.237237    1.000000    1.000000    1.000000    0.000000    0.000000    0.000000
   37.637638    1.000000    1.000000    1.000000    0.000000    0.000000    0.000000
   38.038038    1.000000    1.000000    1.000000    0.000000    0.000000    0.000000
   38.438438    1.000000    1.000000    1.000000    0.000000    0.000000    0.000000
   38.838839    1.000000    1.000000    1.000000    0.000000    0.000000    0.000000
   39.239239    1.000000    1.000000    1.000000    0.000000    0.000000    0.000000
   39.639640    1.000000    1.000000    1.000000    0.000000    0.000000    0.000000
 
 The outermost node in the dielectric function lies at epsilon=  -1.0


--------------------------------------------------------------------------------------------------------


    OPTICS:  cpu time    0.2079: real time    0.3154
    4ORBIT:  cpu time    0.0000: real time    0.0000

 total amount of memory used by VASP MPI-rank0    70584. kBytes
=======================================================================

   base      :      30000. kBytes
   nonl-proj :      18855. kBytes
   fftplans  :       2810. kBytes
   grid      :      11902. kBytes
   one-center:        124. kBytes
   wavefun   :       6893. kBytes
 
  
  
 General timing and accounting informations for this job:
 ========================================================
  
                  Total CPU time used (sec):     1932.686
                            User time (sec):     1836.636
                          System time (sec):       96.050
                         Elapsed time (sec):     1935.127
  
                   Maximum memory used (kb):     1726880.
                   Average memory used (kb):           0.
  
                          Minor page faults:       128676
                          Major page faults:            0
                 Voluntary context switches:         9313
