 vasp.5.4.4.18Apr17-6-g9f103f2a35 (build Sep 16 2019 21:59:08) complex          
  
 executed on             LinuxIFC date 2021.10.31  23:32:04
 running on   72 total cores
 distrk:  each k-point on   72 cores,    1 groups
 distr:  one band on NCORES_PER_BAND=   1 cores,   72 groups


--------------------------------------------------------------------------------------------------------


 INCAR:
 POTCAR:    PAW_PBE Fe 06Sep2000                  
 POTCAR:    PAW_PBE I 08Apr2002                   

 ----------------------------------------------------------------------------- 
|                                                                             |
|           W    W    AA    RRRRR   N    N  II  N    N   GGGG   !!!           |
|           W    W   A  A   R    R  NN   N  II  NN   N  G    G  !!!           |
|           W    W  A    A  R    R  N N  N  II  N N  N  G       !!!           |
|           W WW W  AAAAAA  RRRRR   N  N N  II  N  N N  G  GGG   !            |
|           WW  WW  A    A  R   R   N   NN  II  N   NN  G    G                |
|           W    W  A    A  R    R  N    N  II  N    N   GGGG   !!!           |
|                                                                             |
|      For optimal performance we recommend to set                            |
|        NCORE= 4 - approx SQRT( number of cores)                             |
|      NCORE specifies how many cores store one orbital (NPAR=cpu/NCORE).     |
|      This setting can  greatly improve the performance of VASP for DFT.     |
|      The default,   NCORE=1            might be grossly inefficient         |
|      on modern multi-core architectures or massively parallel machines.     |
|      Do your own testing !!!!                                               |
|      Unfortunately you need to use the default for GW and RPA calculations. |
|      (for HF NCORE is supported but not extensively tested yet)             |
|                                                                             |
 ----------------------------------------------------------------------------- 

 POTCAR:    PAW_PBE Fe 06Sep2000                  
   VRHFIN =Fe:  d7 s1                                                           
   LEXCH  = PE                                                                  
   EATOM  =   594.3153 eV,   43.6809 Ry                                         
                                                                                
   TITEL  = PAW_PBE Fe 06Sep2000                                                
   LULTRA =        F    use ultrasoft PP ?                                      
   IUNSCR =        1    unscreen: 0-lin 1-nonlin 2-no                           
   RPACOR =    2.000    partial core radius                                     
   POMASS =   55.847; ZVAL   =    8.000    mass and valenz                      
   RCORE  =    2.300    outmost cutoff radius                                   
   RWIGS  =    2.460; RWIGS  =    1.302    wigner-seitz radius (au A)           
   ENMAX  =  267.882; ENMIN  =  200.911 eV                                      
   RCLOC  =    1.701    cutoff for local pot                                    
   LCOR   =        T    correct aug charges                                     
   LPAW   =        T    paw PP                                                  
   EAUG   =  511.368                                                            
   DEXC   =    0.000                                                            
   RMAX   =    2.356    core radius for proj-oper                               
   RAUG   =    1.300    factor for augmentation sphere                          
   RDEP   =    2.442    radius for radial grids                                 
   RDEPT  =    1.890    core radius for aug-charge                              
                                                                                
   Atomic configuration                                                         
    9 entries                                                                   
     n  l   j            E        occ.                                          
     1  0  0.50     -6993.8440   2.0000                                         
     2  0  0.50      -814.6047   2.0000                                         
     2  1  1.50      -693.3689   6.0000                                         
     3  0  0.50       -89.4732   2.0000                                         
     3  1  1.50       -55.6373   6.0000                                         
     3  2  2.50        -3.8151   7.0000                                         
     4  0  0.50        -4.2551   1.0000                                         
     4  1  1.50        -3.4015   0.0000                                         
     4  3  2.50        -1.3606   0.0000                                         
   Description                                                                  
     l       E           TYP  RCUT    TYP  RCUT                                 
     2     -3.8151135     23  2.300                                             
     2     -5.1756961     23  2.300                                             
     0     -4.2550963     23  2.300                                             
     0      7.2035603     23  2.300                                             
     1     -2.7211652     23  2.300                                             
     1     18.4316424     23  2.300                                             
  local pseudopotential read in
  partial core-charges read in
  partial kinetic energy density read in
  atomic valenz-charges read in
  non local Contribution for L=           2  read in
    real space projection operators read in
  non local Contribution for L=           2  read in
    real space projection operators read in
  non local Contribution for L=           0  read in
    real space projection operators read in
  non local Contribution for L=           0  read in
    real space projection operators read in
  non local Contribution for L=           1  read in
    real space projection operators read in
  non local Contribution for L=           1  read in
    real space projection operators read in
    PAW grid and wavefunctions read in
 
   number of l-projection  operators is LMAX  =           6
   number of lm-projection operators is LMMAX =          18
 
 POTCAR:    PAW_PBE I 08Apr2002                   
   VRHFIN =I : s2p5                                                             
   LEXCH  = PE                                                                  
   EATOM  =   315.8678 eV,   23.2156 Ry                                         
                                                                                
   TITEL  = PAW_PBE I 08Apr2002                                                 
   LULTRA =        F    use ultrasoft PP ?                                      
   IUNSCR =        1    unscreen: 0-lin 1-nonlin 2-no                           
   RPACOR =    2.200    partial core radius                                     
   POMASS =  126.904; ZVAL   =    7.000    mass and valenz                      
   RCORE  =    2.300    outmost cutoff radius                                   
   RWIGS  =    2.810; RWIGS  =    1.487    wigner-seitz radius (au A)           
   ENMAX  =  175.647; ENMIN  =  131.735 eV                                      
   ICORE  =        3    local potential                                         
   LCOR   =        T    correct aug charges                                     
   LPAW   =        T    paw PP                                                  
   EAUG   =  370.139                                                            
   DEXC   =    0.000                                                            
   RMAX   =    2.359    core radius for proj-oper                               
   RAUG   =    1.300    factor for augmentation sphere                          
   RDEP   =    2.392    radius for radial grids                                 
   RDEPT  =    2.170    core radius for aug-charge                              
                                                                                
   Atomic configuration                                                         
   13 entries                                                                   
     n  l   j            E        occ.                                          
     1  0  0.50    -32976.3739   2.0000                                         
     2  0  0.50     -5094.5933   2.0000                                         
     2  1  1.50     -4572.0131   6.0000                                         
     3  0  0.50     -1028.2813   2.0000                                         
     3  1  1.50      -859.0250   6.0000                                         
     3  2  2.50      -605.7620  10.0000                                         
     4  0  0.50      -180.5540   2.0000                                         
     4  1  1.50      -127.5306   6.0000                                         
     4  2  2.50       -50.2720  10.0000                                         
     5  0  0.50       -17.4058   2.0000                                         
     5  1  0.50        -7.0851   5.0000                                         
     5  2  1.50        -7.0750   0.0000                                         
     4  3  2.50        -7.0750   0.0000                                         
   Description                                                                  
     l       E           TYP  RCUT    TYP  RCUT                                 
     0    -17.4058016     23  2.300                                             
     0    -18.7663842     23  2.300                                             
     1     -7.0850686     23  2.300                                             
     1     -4.2150896     23  2.300                                             
     2     -7.0750295     23  2.300                                             
     3     -1.3605826     23  2.300                                             
  local pseudopotential read in
  partial core-charges read in
  partial kinetic energy density read in
  atomic valenz-charges read in
  non local Contribution for L=           0  read in
    real space projection operators read in
  non local Contribution for L=           0  read in
    real space projection operators read in
  non local Contribution for L=           1  read in
    real space projection operators read in
  non local Contribution for L=           1  read in
    real space projection operators read in
  non local Contribution for L=           2  read in
    real space projection operators read in
    PAW grid and wavefunctions read in
 
   number of l-projection  operators is LMAX  =           5
   number of lm-projection operators is LMMAX =          13
 
  PAW_PBE Fe 06Sep2000                  :
 energy of atom  1       EATOM= -594.3153
 kinetic energy error for atom=    0.0026 (will be added to EATOM!!)
  PAW_PBE I 08Apr2002                   :
 energy of atom  2       EATOM= -315.8678
 kinetic energy error for atom=    0.0009 (will be added to EATOM!!)
 
 
 POSCAR:  Fe  I                                  
  positions in cartesian coordinates
  No initial velocities read in
 exchange correlation table for  LEXCH =        8
   RHO(1)=    0.500       N(1)  =     2000
   RHO(2)=  100.500       N(2)  =     4000
 


--------------------------------------------------------------------------------------------------------


 ion  position               nearest neighbor table
   1  0.667  0.333  0.500-   7 2.81   6 2.81   8 2.81   3 2.81   5 2.81   4 2.81
   2  0.333  0.667  0.500-   5 2.81   3 2.81   4 2.81   6 2.81   8 2.81   7 2.81
   3  0.428  0.000  0.417-   2 2.81   1 2.81
   4  0.572  0.572  0.417-   2 2.81   1 2.81
   5  1.000  0.428  0.417-   2 2.81   1 2.81
   6  0.428  0.000  0.583-   1 2.81   2 2.81
   7  0.572  0.572  0.583-   1 2.81   2 2.81
   8  1.000  0.428  0.583-   1 2.81   2 2.81
 
  LATTYP: Found a hexagonal cell.
 ALAT       =     7.2841981229
 C/A-ratio  =     2.9610806465
  
  Lattice vectors:
  
 A1 = (   7.2841981229,   0.0000000000,   0.0000000000)
 A2 = (  -3.6420990614,   6.3083006206,   0.0000000000)
 A3 = (   0.0000000000,   0.0000000000,  21.5690980866)


Analysis of symmetry for initial positions (statically):
=====================================================================
 Subroutine PRICEL returns:
 Original cell was already a primitive cell.
 

 Routine SETGRP: Setting up the symmetry group for a 
 hexagonal supercell.


 Subroutine GETGRP returns: Found  3 space group operations
 (whereof  3 operations were pure point group operations)
 out of a pool of 24 trial point group operations.


The static configuration has the point symmetry C_3 .


Analysis of symmetry for dynamics (positions and initial velocities):
=====================================================================
 Subroutine PRICEL returns:
 Original cell was already a primitive cell.
 

 Routine SETGRP: Setting up the symmetry group for a 
 hexagonal supercell.


 Subroutine GETGRP returns: Found  3 space group operations
 (whereof  3 operations were pure point group operations)
 out of a pool of 24 trial point group operations.


The dynamic configuration has the point symmetry C_3 .


 Subroutine INISYM returns: Found  3 space group operations
 (whereof  3 operations are pure point group operations),
 and found     1 'primitive' translations

 
 
 KPOINTS: KPT-Resolved Value to Generate K-Mesh: 0

Automatic generation of k-mesh.
Space group operators:
 irot       det(A)        alpha          n_x          n_y          n_z        tau_x        tau_y        tau_z
    1     1.000000     0.000000     1.000000     0.000000     0.000000     0.000000     0.000000     0.000000
    2     1.000000   120.000000     0.000000     0.000000    -1.000000     0.000000     0.000000     0.000000
    3     1.000000   120.000000     0.000000     0.000000     1.000000     0.000000     0.000000     0.000000
 
 Subroutine IBZKPT returns following result:
 ===========================================
 
 Found      2 irreducible k-points:
 
 Following reciprocal coordinates:
            Coordinates               Weight
  0.000000  0.000000  0.000000      1.000000
  0.500000  0.000000  0.000000      3.000000
 
 Following cartesian coordinates:
            Coordinates               Weight
  0.000000  0.000000  0.000000      1.000000
  0.068642  0.039630  0.000000      3.000000
 
 
 Subroutine IBZKPT_HF returns following result:
 ==============================================
 
 Found      4 k-points in 1st BZ
 the following      4 k-points will be used (e.g. in the exchange kernel)
 Following reciprocal coordinates:   # in IRBZ
  0.000000  0.000000  0.000000    0.25000000   1 t-inv F
  0.500000  0.000000  0.000000    0.25000000   2 t-inv F
 -0.500000  0.500000  0.000000    0.25000000   2 t-inv F
  0.000000 -0.500000  0.000000    0.25000000   2 t-inv F


--------------------------------------------------------------------------------------------------------




 Dimension of arrays:
   k-points           NKPTS =      2   k-points in BZ     NKDIM =      4   number of bands    NBANDS=    288
   number of dos      NEDOS =    301   number of ions     NIONS =      8
   non local maximal  LDIM  =      6   non local SUM 2l+1 LMDIM =     18
   total plane-waves  NPLWV = 211680
   max r-space proj   IRMAX =      1   max aug-charges    IRDMAX=  12553
   dimension x,y,z NGX =    42 NGY =   42 NGZ =  120
   dimension x,y,z NGXF=    84 NGYF=   84 NGZF=  240
   support grid    NGXF=    84 NGYF=   84 NGZF=  240
   ions per type =               2   6
   NGX,Y,Z   is equivalent  to a cutoff of   9.59,  9.59,  9.25 a.u.
   NGXF,Y,Z  is equivalent  to a cutoff of  19.17, 19.17, 18.50 a.u.

 SYSTEM =  Si                                      
 POSCAR =   Fe  I                                  

 Startparameter for this run:
   NWRITE =      2    write-flag & timer
   PREC   = normal    normal or accurate (medium, high low for compatibility)
   ISTART =      1    job   : 0-new  1-cont  2-samecut
   ICHARG =      0    charge: 1-file 2-atom 10-const
   ISPIN  =      1    spin polarized calculation?
   LNONCOLLINEAR =      F non collinear calculations
   LSORBIT =      F    spin-orbit coupling
   INIWAV =      1    electr: 0-lowe 1-rand  2-diag
   LASPH  =      F    aspherical Exc in radial PAW
   METAGGA=      F    non-selfconsistent MetaGGA calc.

 Electronic Relaxation 1
   ENCUT  =  520.0 eV  38.22 Ry    6.18 a.u.  13.54 13.54 40.10*2*pi/ulx,y,z
   ENINI  =  520.0     initial cutoff
   ENAUG  =  511.4 eV  augmentation charge cutoff
   NELM   =     60;   NELMIN=  2; NELMDL=  0     # of ELM steps 
   EDIFF  = 0.1E-07   stopping-criterion for ELM
   LREAL  =      F    real-space projection
   NLSPLINE    = F    spline interpolate recip. space projectors
   LCOMPAT=      F    compatible to vasp.4.4
   GGA_COMPAT  = T    GGA compatible to vasp.4.4-vasp.4.6
   LMAXPAW     = -100 max onsite density
   LMAXMIX     =    2 max onsite mixed and CHGCAR
   VOSKOWN=      0    Vosko Wilk Nusair interpolation
   ROPT   =    0.00000   0.00000
 Ionic relaxation
   EDIFFG = 0.1E-06   stopping-criterion for IOM
   NSW    =      0    number of steps for IOM
   NBLOCK =      1;   KBLOCK =      1    inner block; outer block 
   IBRION =     -1    ionic relax: 0-MD 1-quasi-New 2-CG
   NFREE  =      0    steps in history (QN), initial steepest desc. (CG)
   ISIF   =      0    stress and relaxation
   IWAVPR =     10    prediction:  0-non 1-charg 2-wave 3-comb
   ISYM   =      3    0-nonsym 1-usesym 2-fastsym
   LCORR  =      T    Harris-Foulkes like correction to forces

   POTIM  = 0.5000    time-step for ionic-motion
   TEIN   =    0.0    initial temperature
   TEBEG  =    0.0;   TEEND  =   0.0 temperature during run
   SMASS  =  -3.00    Nose mass-parameter (am)
   estimated Nose-frequenzy (Omega)   =  0.10E-29 period in steps =****** mass=  -0.121E-26a.u.
   SCALEE = 1.0000    scale energy and forces
   NPACO  =    256;   APACO  = 16.0  distance and # of slots for P.C.
   PSTRESS=    0.0 pullay stress

  Mass of Ions in am
   POMASS =  55.85126.90
  Ionic Valenz
   ZVAL   =   8.00  7.00
  Atomic Wigner-Seitz radii
   RWIGS  =  -1.00 -1.00
  virtual crystal weights 
   VCA    =   1.00  1.00
   NELECT =      58.0000    total number of electrons
   NUPDOWN=      -1.0000    fix difference up-down

 DOS related values:
   EMIN   =  10.00;   EMAX   =-10.00  energy-range for DOS
   EFERMI =   0.00
   ISMEAR =     0;   SIGMA  =   0.01  broadening in eV -4-tet -1-fermi 0-gaus

 Electronic relaxation 2 (details)
   IALGO  =     38    algorithm
   LDIAG  =      T    sub-space diagonalisation (order eigenvalues)
   LSUBROT=      F    optimize rotation matrix (better conditioning)
   TURBO    =      0    0=normal 1=particle mesh
   IRESTART =      0    0=no restart 2=restart with 2 vectors
   NREBOOT  =      0    no. of reboots
   NMIN     =      0    reboot dimension
   EREF     =   0.00    reference energy to select bands
   IMIX   =      1    mixing-type and parameters
     AMIX     =   0.40;   BMIX     =  1.00
     AMIX_MAG =   1.60;   BMIX_MAG =  1.00
     AMIN     =   0.10
     WC   =   100.;   INIMIX=   1;  MIXPRE=   1;  MAXMIX= -45

 Intra band minimization:
   WEIMIN = 0.0000     energy-eigenvalue tresh-hold
   EBREAK =  0.87E-11  absolut break condition
   DEPER  =   0.30     relativ break condition  

   TIME   =   0.40     timestep for ELM

  volume/ion in A,a.u.               =     123.89       836.05
  Fermi-wavevector in a.u.,A,eV,Ry     =   0.635588  1.201087  5.496368  0.403972
  Thomas-Fermi vector in A             =   1.699971
 
 Write flags
   LWAVE        =      T    write WAVECAR
   LDOWNSAMPLE  =      F    k-point downsampling of WAVECAR
   LCHARG       =      T    write CHGCAR
   LVTOT        =      F    write LOCPOT, total local potential
   LVHAR        =      F    write LOCPOT, Hartree potential only
   LELF         =      F    write electronic localiz. function (ELF)
   LORBIT       =      0    0 simple, 1 ext, 2 COOP (PROOUT), +10 PAW based schemes


 Dipole corrections
   LMONO  =      F    monopole corrections only (constant potential shift)
   LDIPOL =      F    correct potential (dipole corrections)
   IDIPOL =      0    1-x, 2-y, 3-z, 4-all directions 
   EPSILON=  1.0000000 bulk dielectric constant

 Exchange correlation treatment:
   GGA     =    --    GGA type
   LEXCH   =     8    internal setting for exchange type
   VOSKOWN=      0    Vosko Wilk Nusair interpolation
   EXXOEP  =     0    0=HF, 1=EXX-LHF (local Hartree Fock) 2=EXX OEP
   LHFCALC =     T    Hartree Fock is set to
   LSYMGRAD=     F    symmetrize gradient (conserves proper symmetry)
   PRECFOCK=normal    Normal, Fast or Accurate (Low or Medium for compatibility)
   LRHFCALC=     F    long range Hartree Fock
   LRSCOR  =     F    long range correlation only (use DFT for short range part)
   LTHOMAS =     F    Thomas Fermi screening in HF
   LMODELHF=     F    short range full HF, long range fraction AEXX
   ENCUT4O =  -1.0   cutoff for four orbital integrals eV
   LMAXFOCK=     4    L truncation for augmentation on plane wave grid
   LMAXFOCKAE=   4    L truncation for all-electron charge restoration on plane wave grid
   NMAXFOCKAE=   1    number of basis functions for all-electron charge restoration
   LFOCKAEDFT=     F  apply the AE augmentation even for DFT
   NKREDX  =     1    reduce k-point grid by
   NKREDY  =     1    reduce k-point grid by
   NKREDZ  =     1    reduce k-point grid by
   SHIFTRED=     F    shift reduced grid of Gamma
   HFKIDENT=     F    idential grid for each k-point
   ODDONLY =     F    use only odd q-grid points
   EVENONLY=     F    use only even q-grid points
   HFALPHA =   -1.0000 decay constant for conv. correction
   MCALPHA =    0.0000 extent of test-charge in conv. correction in multipole expansion
   AEXX    =    1.0000 exact exchange contribution
   HFSCREEN=    0.0000 screening length (either q_TF or 0.3 A-1)
   HFSCREENC=   0.0000 screening length for correlation (either q_TF or 0.3 A-1)
   HFRCUT  =    0.0000 spherical cutoff for potential kernel
   ALDAX   =    0.0000 LDA exchange part
   AGGAX   =    0.0000 GGA exchange part
   ALDAC   =    0.0000 LDA correlation
   AGGAC   =    0.0000 GGA correlation
   ENCUTFOCK=  -1.0 apply spherical cutoff to Coloumb kernel
   NBANDSGWLOW=     1    first orbital included in HF term
   NBLOCK_FOCK=    64    blocking factor in FOCK_ACC
 Linear response parameters
   LEPSILON=     F    determine dielectric tensor
   LRPA    =     F    only Hartree local field effects (RPA)
   LNABLA  =     F    use nabla operator in PAW spheres
   LVEL    =     F    velocity operator in full k-point grid
   LINTERFAST=   F  fast interpolation
   KINTER  =     0    interpolate to denser k-point grid
   CSHIFT  =0.1000    complex shift for real part using Kramers Kronig
   OMEGAMAX=  20.0    maximum frequency
   DEG_THRESHOLD= 0.2000000E-02 threshold for treating states as degnerate
   RTIME   =   -0.100 relaxation time in fs
  (WPLASMAI=    0.000 imaginary part of plasma frequency in eV, 0.658/RTIME)
   DFIELD  = 0.0000000 0.0000000 0.0000000 field for delta impulse in time
 
 Orbital magnetization related:
   ORBITALMAG=     F  switch on orbital magnetization
   LCHIMAG   =     F  perturbation theory with respect to B field
   DQ        =  0.001000  dq finite difference perturbation B field
   LLRAUG    =     F  two centre corrections for induced B field

 Response functions by sum over occupied states:
   ALGO    =BSE        execute GW part
   LFXC    =     F    include DFT xc kernel in TD-HF and W
   LADDER  =     T    particle hole ladder diagrams for BSE/TD-HF and W (Nano-quanta)
   LRPAFORCE=     F   calculate RPA forces
   LHARTREE=     T    include Hartree terms (bubbles-RPA) in BSE/TD-HF
   IBSE    =     0    BSE modus: 0 exact, 1 time-evolution (store matrix), 10 time-evolution (implicit)
   KPOINT  =    -1   0   0   0    k-point index at which BSE equation is solved (and G at which response is eval.)
   LTRIPLET=     F    triplet instead of singlet excitation (BSE only)
   LRSRPA  =     F    range separated RPA (total - short) in ACFDT
   LTCTE   =     F    use test-charge test-electron dielectric function
   LTETE   =     F    use test-electron test-electron dielectric function
   LFXCEPS =     F    determine f_xc=epsilon-1/Xi Sharma and Gross kernel
   LFXHEG  =     F    model exchange using f_x(G,k_F) from free electron gas
   NATURALO=     2    0 natural orbitals, 1 only virtual, 2 only occupied-virtual rotation
   L2ORDER =     F    2nd order terms only
   LMP2LT   =     F    use LT MP2
   LUSEW   =     T    use screened W from WXXXX.tmp files instead of (screened) HF kernel
   ENCUTGW = 150.0    cutoff for response function in eV
   ENCUTGWSOFT = 150.0 soft cutoff for Coulomb kernel in GW response function in eV
   ENCUTLF =  -1.0    cutoff for local field effects
   LMAXMP2 =    -1    maximum L for one center terms
   SCISSOR =   0.0    scissor correction
   NOMEGA  =     0    number of frequencies
   NOMEGAR =     0    number of frequencies along real axis
   NBANDSGW=    -1    number of bands for which selfenergy shift is calculated
   NBANDSGWLOW=     1 lowest band included in GW (to exclude core correlation)
   NBANDSO =    -1    number of bands for electron-hole treatment (occupied)
   NBANDSV =    -1    number of bands for electron-hole treatment (virtual)
   NELM    =     1    number of iterations in solving QP/BSE equation
   NELMHF  =     1    number of iterations in the inner HF iteration
   DIM     =     3    dimensionality of system (0=0D molecules, 3=3D)
   ANTIRES =     0    antiresonant part (0) no TDA (1) w=0 exact (2) accurate
   OMEGAMAX=  20.0    maximum frequency
   OMEGAMIN= -30.000    minimum frequency
   OMEGATL =-200.0    maximum frequency of tail
   OMEGAGRID=   140    grid type (0 default)
   CSHIFT  =-0.100    complex shift used in evaluation of response functions
   SELFENERGY=   F    calculate selfenergy instead of QP shifts
   LSPECTRAL =   F    use spectral functions                   
   LSPECTRALGW=   F   use spectral functions to calculate int dz G(w-z) W(z) (more accurate)
   LSINGLES  =   F   calculate the singles contribution to the correlation energy
   LFERMIGW  =   F   update Fermi-energy in the Greens function

   ODDONLYGW =   F    avoid all even points for polarizability 
   EVENONLYGW=   F    avoid all odd  points for polarizability 
   NKREDLFX  =   1   NKREDLFY  =   1   NKREDLFZ  =   1

   TELESCOPE =   0   use telescope k-point sampling
   TAUPAR    =   1   number of TAU groups used in imaginary time calculation
   OMEGAPAR  =  -1   number of OMEGA groups used in imaginary frequency calculation



--------------------------------------------------------------------------------------------------------


 Static calculation
 charge density and potential will be updated during run
 non-spin polarized calculation
 Variant of blocked Davidson
 Davidson routine will perform the subspace rotation
 perform sub-space diagonalisation
    after iterative eigenvector-optimisation
 Kerker-like  mixing scheme
 using additional bands          259
 reciprocal scheme for non local part
 use partial core corrections
 calculate Harris-corrections to forces 
   (improved forces if not selfconsistent)
 use gradient corrections 
 use of overlap-Matrix (Vanderbilt PP)
 Gauss-broadening in eV      SIGMA  =   0.01


--------------------------------------------------------------------------------------------------------


  energy-cutoff  :      520.00
  volume of cell :      991.12
      direct lattice vectors                 reciprocal lattice vectors
     7.284198123  0.000000000  0.000000000     0.137283471  0.079260649  0.000000000
    -3.642099061  6.308300621  0.000000000     0.000000000  0.158521298  0.000000000
     0.000000000  0.000000000 21.569098087     0.000000000  0.000000000  0.046362625

  length of vectors
     7.284198123  7.284198123 21.569098087     0.158521298  0.158521298  0.046362625


 
 old parameters found on file WAVECAR:
  energy-cutoff  :      520.00
  volume of cell :      991.12
      direct lattice vectors                 reciprocal lattice vectors
     7.284198123  0.000000000  0.000000000     0.137283471  0.079260649  0.000000000
    -3.642099061  6.308300621  0.000000000     0.000000000  0.158521298  0.000000000
     0.000000000  0.000000000 21.569098087     0.000000000  0.000000000  0.046362625

  length of vectors

 
 k-points in units of 2pi/SCALE and weight: KPT-Resolved Value to Generate K-Mesh: 0
   0.00000000  0.00000000  0.00000000       0.250
   0.06864174  0.03963032  0.00000000       0.750
 
 k-points in reciprocal lattice and weights: KPT-Resolved Value to Generate K-Mesh: 0
   0.00000000  0.00000000  0.00000000       0.250
   0.50000000  0.00000000  0.00000000       0.750
 
 position of ions in fractional coordinates (direct lattice) 
   0.66666667  0.33333333  0.50002607
   0.33333333  0.66666667  0.49994294
   0.42789610  0.00005456  0.41726362
   0.57215846  0.57210390  0.41726362
   0.99994544  0.42784154  0.41726362
   0.42790301  0.00015168  0.58273638
   0.57224867  0.57209699  0.58273638
   0.99984832  0.42775133  0.58273638
 
 position of ions in cartesian coordinates  (Angst):
   3.64209906  2.10276687 10.78511139
   0.00000000  4.20553375 10.78331839
   3.11668126  0.00034417  9.00000000
   2.08405649  3.60900339  9.00000000
   5.72555944  2.69895306  9.00000000
   3.11637787  0.00095686 12.56909809
   2.08473879  3.60895979 12.56909809
   5.72518053  2.69838397 12.56909809
 


--------------------------------------------------------------------------------------------------------


 k-point  1 :   0.0000 0.0000 0.0000  plane waves:   26775
 k-point  2 :   0.5000 0.0000 0.0000  plane waves:   26630

 maximum and minimum number of plane-waves per node :     26775    26630

 maximum number of plane-waves:     26775
 maximum index in each direction: 
   IXMAX=   13   IYMAX=   13   IZMAX=   40
   IXMIN=  -14   IYMIN=  -13   IZMIN=  -40


 serial   3D FFT for wavefunctions
 parallel 3D FFT for charge:
    minimum data exchange during FFTs selected (reduces bandwidth)

 
 Radii for the augmentation spheres in the non-local exchange
 for species   1 augmentation radius   1.010 (default was   1.010)
 error exchange integrals (PW-AE in eV) (mean, max) 0.926 3.223 density error[0,qmax] 0.0101
 for species   2 augmentation radius   1.188 (default was   1.188)
 error exchange integrals (PW-AE in eV) (mean, max) 0.442 1.981 density error[0,qmax] 0.0207
 Maximum index for augmentation-charges in exchange         1500
  SETUP_FOCK is finished

 total amount of memory used by VASP MPI-rank0    70538. kBytes
=======================================================================

   base      :      30000. kBytes
   nonl-proj :      18855. kBytes
   fftplans  :       2096. kBytes
   grid      :      10766. kBytes
   one-center:        124. kBytes
   HF        :        259. kBytes
   nonlr-proj:       4992. kBytes
   wavefun   :       3446. kBytes
 
     INWAV:  cpu time    0.5263: real time    0.5270
 charge density for first step will be calculated from the start-wavefunctions


--------------------------------------------------------------------------------------------------------


 Maximum index for augmentation-charges          809 (set IRDMAX)


--------------------------------------------------------------------------------------------------------


 initial charge from wavefunction
    FEWALD:  cpu time    0.0020: real time    0.0022

 The Fermi energy was updated, please check that it is located mid-gap
 values below the HOMO (VB) or above the LUMO (CB) will cause erroneous energies
 E-fermi :   8.6185


 ----------------------------------------------------------------------------- 
|                                                                             |
|           W    W    AA    RRRRR   N    N  II  N    N   GGGG   !!!           |
|           W    W   A  A   R    R  NN   N  II  NN   N  G    G  !!!           |
|           W    W  A    A  R    R  N N  N  II  N N  N  G       !!!           |
|           W WW W  AAAAAA  RRRRR   N  N N  II  N  N N  G  GGG   !            |
|           WW  WW  A    A  R   R   N   NN  II  N   NN  G    G                |
|           W    W  A    A  R    R  N    N  II  N    N   GGGG   !!!           |
|                                                                             |
|      You have a very small band gap. This results in slow convergence       |
|      of the energy with respect to NOMEGA                                   |
|      Usually VASP defaults OMEGAMIN to the bandgap which guarantees an      |
|      optimal grid for OMEGAGRID=140.                                        |
|      The gap was found to be OMEGAMIN= 0.0100                               |
|      Now OMEGAMIN is set to 0.02 instead, which effectively removes some    |
|      excitations from the spectrum.                                         |
|      You can set OMEGAMIN manually in the INCAR, however.                   |
|                                                                             |
 ----------------------------------------------------------------------------- 

 Response functions by sum over occupied states:
 ===============================================
   NOMEGA  =     0    number of frequencies
   NOMEGAR =     0    number of frequencies along real axis
   OMEGAMAX=  20.00   maximum frequency
   OMEGAMIN=   0.02   minimum frequency
   OMEGATL = 261.96   maximum frequency of tail
   CSHIFT  =  0.100   complex shift used in evaluation of response functions


 Energies iw= 
 ============


 Maximum error of frequency grid:  0.0000000E+00
 

IMPORTANT INFORMATION: All symmetrisations will be switched off!
NOSYMM: (Re-)initialisation of all symmetry stuff for point group C_1.

 
 KPOINTS: KPT-Resolved Value to Generate K-Mesh: 0

Automatic generation of k-mesh.
Space group operators:
 irot       det(A)        alpha          n_x          n_y          n_z        tau_x        tau_y        tau_z
    1     1.000000     0.000000     1.000000     0.000000     0.000000     0.000000     0.000000     0.000000
 
 Subroutine IBZKPT returns following result:
 ===========================================
 
 Found      4 irreducible k-points:
 
 Following reciprocal coordinates:
            Coordinates               Weight
  0.000000  0.000000  0.000000      1.000000
  0.500000  0.000000  0.000000      1.000000
  0.000000  0.500000  0.000000      1.000000
  0.500000  0.500000  0.000000      1.000000
 
 Following cartesian coordinates:
            Coordinates               Weight
  0.000000  0.000000  0.000000      1.000000
  0.068642  0.039630  0.000000      1.000000
  0.000000  0.079261  0.000000      1.000000
  0.068642  0.118891  0.000000      1.000000
 
 files read and symmetry switched off, memory is now:
 total amount of memory used by VASP MPI-rank0    89413. kBytes
=======================================================================

   base      :      30000. kBytes
   nonl-proj :      34283. kBytes
   fftplans  :       2096. kBytes
   grid      :      10766. kBytes
   one-center:        124. kBytes
   HF        :        259. kBytes
   nonlr-proj:       4992. kBytes
   wavefun   :       6893. kBytes
 
 Basis sets for responsefunctions:
 =================================
 k-point  1 :   0.0000 0.0000 0.0000  plane waves:    4141
 k-point  2 :   0.5000 0.0000 0.0000  plane waves:    4136
 k-point  3 :   0.0000-0.5000 0.0000  plane waves:    4136
 k-point  4 :  -0.5000 0.5000 0.0000  plane waves:    4136

 maximum and minimum number of plane-waves per node :      4141     4136

 maximum number of plane-waves:      4141
 maximum index in each direction: 
   IXMAX=    7   IYMAX=    7   IZMAX=   21
   IXMIN=   -7   IYMIN=   -7   IZMIN=  -21

NQ=   1    0.0000    0.0000    0.0000, 
 parallelization over bands

 Bands included in the BSE
 VB(min)=    1  VB(max)=  100
 CB(min)=    1  CB(max)=  144

 electron-hole pairs beyond OMEGAMAX are removed OMEGAMAX=  20.00000
 W is read from the files WXXXX.tmp or WFULLXXXX.tmp if present
 BSE (scaLAPACK) attempting allocation of   0.016 Gbyte  rank=   8376

 total amount of memory used by VASP MPI-rank0  1221364. kBytes
=======================================================================

   base      :      30000. kBytes
   nonl-proj :      34283. kBytes
   fftplans  :       2096. kBytes
   grid      :      10766. kBytes
   one-center:        124. kBytes
   HF        :        259. kBytes
   nonlr-proj:       4992. kBytes
   wavefun   :       6893. kBytes
   response  :    1116092. kBytes
   bse       :      15859. kBytes
 
